
     Program PHONON v.6.8 starts on 12May2023 at 18:26:38 

     This program is part of the open-source Quantum ESPRESSO suite
     for quantum simulation of materials; please cite
         "P. Giannozzi et al., J. Phys.:Condens. Matter 21 395502 (2009);
         "P. Giannozzi et al., J. Phys.:Condens. Matter 29 465901 (2017);
         "P. Giannozzi et al., J. Chem. Phys. 152 154105 (2020);
          URL http://www.quantum-espresso.org", 
     in publications or presentations arising from this work. More details at
     http://www.quantum-espresso.org/quote

     Parallel version (MPI), running on     1 processors

     MPI processes distributed on     1 nodes
     2057 MiB available memory on the printing compute node when the environment starts

     Reading input from ph.aluminum.in

     Reading xml data from directory:

     ./al.save/
     Message from routine volume:
     axis vectors are left-handed
     file Al.pbe-n-kjpaw_psl.1.0.0.UPF: wavefunction(s)  3S 3P renormalized

     IMPORTANT: XC functional enforced from input :
     Exchange-correlation= PBE
                           (   1   4   3   4   0   0   0)
     Any further DFT definition will be discarded
     Please, verify this is what you really want


     G-vector sticks info
     --------------------
     sticks:   dense  smooth     PW     G-vecs:    dense   smooth      PW
     Sum         475     241     85                 6879     2445     531

     Using Slab Decomposition

     Reading collected, re-writing distributed wavefunctions


     Dynamical matrices for ( 4, 4, 4)  uniform grid of q-points
     (   8 q-points):
       N         xq(1)         xq(2)         xq(3) 
       1   0.000000000   0.000000000   0.000000000
       2  -0.176776695   0.176776695   0.176776695
       3   0.353553391  -0.353553391  -0.353553391
       4   0.000000000   0.000000000   0.353553391
       5   0.530330086  -0.530330086  -0.176776695
       6   0.353553391  -0.353553391   0.000000000
       7   0.000000000   0.000000000  -0.707106781
       8   0.000000000   0.353553391  -0.707106781

     Calculation of q =    0.0000000   0.0000000   0.0000000

     phonons of Al mesh                                                         

     bravais-lattice index     =            0
     lattice parameter (alat)  =       5.3943  a.u.
     unit-cell volume          =     110.9892 (a.u.)^3
     number of atoms/cell      =            1
     number of atomic types    =            1
     kinetic-energy cut-off    =      30.0000  Ry
     charge density cut-off    =     240.0000  Ry
     convergence threshold     =      1.0E-16
     beta                      =       0.0700
     number of iterations used =            4
     Exchange-correlation= PBE
                           (   1   4   3   4   0   0   0)


     celldm(1)=    5.39426  celldm(2)=    0.00000  celldm(3)=    0.00000
     celldm(4)=    0.00000  celldm(5)=    0.00000  celldm(6)=    0.00000

     crystal axes: (cart. coord. in units of alat)
               a(1) = (  0.7071  0.7071  0.0000 )  
               a(2) = (  0.7071  0.0000  0.7071 )  
               a(3) = (  0.0000  0.7071  0.7071 )  

     reciprocal axes: (cart. coord. in units 2 pi/alat)
               b(1) = (  0.7071  0.7071 -0.7071 )  
               b(2) = (  0.7071 -0.7071  0.7071 )  
               b(3) = ( -0.7071  0.7071  0.7071 )  


     Atoms inside the unit cell: 

     Cartesian axes

     site n.  atom      mass           positions (alat units)
        1     Al  26.9815   tau(    1) = (    0.00000    0.00000    0.00000  )

     Computing dynamical matrix for 
                    q = (   0.0000000   0.0000000   0.0000000 )

     49 Sym.Ops. (with q -> -q+G )


     G cutoff =  176.8949  (   6879 G-vectors)     FFT grid: ( 27, 27, 27)
     G cutoff =   88.4475  (   2445 G-vectors)  smooth grid: ( 20, 20, 20)

     number of k points=   104  Marzari-Vanderbilt smearing, width (Ry)=  0.0147

     PseudoPot. # 1 for Al read from file:
     ./pseudo/Al.pbe-n-kjpaw_psl.1.0.0.UPF
     MD5 check sum: cfc449ca30b5f3223ec38ddd88ac046d
     Pseudo is Projector augmented-wave + core cor, Zval =  3.0
     Generated using "atomic" code by A. Dal Corso  v.5.1
     Shape of augmentation charge: PSQ
     Using radial grid of 1135 points,  6 beta functions with: 
                l(1) =   0
                l(2) =   0
                l(3) =   1
                l(4) =   1
                l(5) =   2
                l(6) =   2
     Q(r) pseudized with 0 coefficients 


     Mode symmetry, O_h (m-3m)  point group:


     Atomic displacements:
     There are    1 irreducible representations

     Representation     1      3 modes -  To be done



     Alpha used in Ewald sum =   2.7000
     PHONON       :      1.11s CPU      1.14s WALL



     Representation #   1 modes #   1   2   3

     Self-consistent Calculation

     Pert. #  1: Fermi energy shift (Ry) =    -1.6544E-24     3.3854E-36
     Pert. #  2: Fermi energy shift (Ry) =     3.3087E-24    -1.2539E-37
     Pert. #  3: Fermi energy shift (Ry) =    -3.3087E-24     1.0658E-36

      iter #   1 total cpu time :     3.9 secs   av.it.:   4.0
      thresh= 1.000E-02 alpha_mix =  0.070 |ddv_scf|^2 =  3.397E-08

     Pert. #  1: Fermi energy shift (Ry) =     8.2718E-25     1.8979E-39
     Pert. #  2: Fermi energy shift (Ry) =    -1.6544E-24     4.2857E-40
     Pert. #  3: Fermi energy shift (Ry) =     3.0330E-24     1.0102E-39

      iter #   2 total cpu time :     6.5 secs   av.it.:   6.2
      thresh= 1.843E-05 alpha_mix =  0.070 |ddv_scf|^2 =  2.913E-08

     Pert. #  1: Fermi energy shift (Ry) =     0.0000E+00     7.3468E-40
     Pert. #  2: Fermi energy shift (Ry) =     1.1029E-24     6.1224E-40
     Pert. #  3: Fermi energy shift (Ry) =    -6.8932E-24    -6.1224E-41

      iter #   3 total cpu time :     9.0 secs   av.it.:   7.0
      thresh= 1.707E-05 alpha_mix =  0.070 |ddv_scf|^2 =  2.720E-10

     Pert. #  1: Fermi energy shift (Ry) =    -3.3087E-24    -8.5713E-40
     Pert. #  2: Fermi energy shift (Ry) =    -1.0478E-23     1.1020E-39
     Pert. #  3: Fermi energy shift (Ry) =     4.9631E-24    -9.1835E-40

      iter #   4 total cpu time :    11.5 secs   av.it.:   6.7
      thresh= 1.649E-06 alpha_mix =  0.070 |ddv_scf|^2 =  2.149E-10

     Pert. #  1: Fermi energy shift (Ry) =     4.9631E-24    -2.4489E-40
     Pert. #  2: Fermi energy shift (Ry) =     9.3747E-24    -7.3468E-40
     Pert. #  3: Fermi energy shift (Ry) =    -4.1359E-24    -1.5306E-39

      iter #   5 total cpu time :    13.8 secs   av.it.:   7.0
      thresh= 1.466E-06 alpha_mix =  0.070 |ddv_scf|^2 =  1.052E-12

     Pert. #  1: Fermi energy shift (Ry) =     5.5145E-25    -8.5713E-40
     Pert. #  2: Fermi energy shift (Ry) =    -2.2058E-24     1.1020E-39
     Pert. #  3: Fermi energy shift (Ry) =     1.3786E-24    -9.1835E-40

      iter #   6 total cpu time :    16.2 secs   av.it.:   5.5
      thresh= 1.025E-07 alpha_mix =  0.070 |ddv_scf|^2 =  8.890E-13

     Pert. #  1: Fermi energy shift (Ry) =     2.7573E-24    -8.5713E-40
     Pert. #  2: Fermi energy shift (Ry) =    -1.6544E-24     1.1020E-39
     Pert. #  3: Fermi energy shift (Ry) =     1.3786E-24    -9.1835E-40

      iter #   7 total cpu time :    18.6 secs   av.it.:   7.2
      thresh= 9.429E-08 alpha_mix =  0.070 |ddv_scf|^2 =  9.248E-17

     End of self-consistent calculation

     Convergence has been achieved 

     Number of q in the star =    1
     List of q in the star:
          1   0.000000000   0.000000000   0.000000000

     Diagonalizing the dynamical matrix

     q = (    0.000000000   0.000000000   0.000000000 ) 

 **************************************************************************
     freq (    1) =       0.034665 [THz] =       1.156286 [cm-1]
     freq (    2) =       0.034665 [THz] =       1.156286 [cm-1]
     freq (    3) =       0.034665 [THz] =       1.156286 [cm-1]
 **************************************************************************

     Mode symmetry, O_h (m-3m)  point group:

     freq (   1-   3) =          1.2  [cm-1]   --> T_1u G_15  G_4- I  

     Calculation of q =   -0.1767767   0.1767767   0.1767767

     Subspace diagonalization in iterative solution of the eigenvalue problem:
     a serial algorithm will be used


     G-vector sticks info
     --------------------
     sticks:   dense  smooth     PW     G-vecs:    dense   smooth      PW
     Sum         475     241     91                 6879     2445     609

     Using Slab Decomposition


     Title: 
     phonons of Al mesh                                                         


     bravais-lattice index     =            0
     lattice parameter (alat)  =       5.3943  a.u.
     unit-cell volume          =     110.9892 (a.u.)^3
     number of atoms/cell      =            1
     number of atomic types    =            1
     number of electrons       =         3.00
     number of Kohn-Sham states=            6
     kinetic-energy cutoff     =      30.0000  Ry
     charge density cutoff     =     240.0000  Ry
     Exchange-correlation= PBE
                           (   1   4   3   4   0   0   0)

     celldm(1)=   5.394260  celldm(2)=   0.000000  celldm(3)=   0.000000
     celldm(4)=   0.000000  celldm(5)=   0.000000  celldm(6)=   0.000000

     crystal axes: (cart. coord. in units of alat)
               a(1) = (   0.707107   0.707107   0.000000 )  
               a(2) = (   0.707107   0.000000   0.707107 )  
               a(3) = (   0.000000   0.707107   0.707107 )  

     reciprocal axes: (cart. coord. in units 2 pi/alat)
               b(1) = (  0.707107  0.707107 -0.707107 )  
               b(2) = (  0.707107 -0.707107  0.707107 )  
               b(3) = ( -0.707107  0.707107  0.707107 )  


     PseudoPot. # 1 for Al read from file:
     ./pseudo/Al.pbe-n-kjpaw_psl.1.0.0.UPF
     MD5 check sum: cfc449ca30b5f3223ec38ddd88ac046d
     Pseudo is Projector augmented-wave + core cor, Zval =  3.0
     Generated using "atomic" code by A. Dal Corso  v.5.1
     Shape of augmentation charge: PSQ
     Using radial grid of 1135 points,  6 beta functions with: 
                l(1) =   0
                l(2) =   0
                l(3) =   1
                l(4) =   1
                l(5) =   2
                l(6) =   2
     Q(r) pseudized with 0 coefficients 


     atomic species   valence    mass     pseudopotential
        Al             3.00    26.98154     Al( 1.00)

     48 Sym. Ops., with inversion, found



   Cartesian axes

     site n.     atom                  positions (alat units)
         1           Al  tau(   1) = (   0.0000000   0.0000000   0.0000000  )

     number of k points=  1120  Marzari-Vanderbilt smearing, width (Ry)=  0.0147

     Number of k-points >= 100: set verbosity='high' to print them.

     Dense  grid:     6879 G-vectors     FFT dimensions: (  27,  27,  27)

     Smooth grid:     2445 G-vectors     FFT dimensions: (  20,  20,  20)

     Estimated max dynamical RAM per process >      23.26 MB

     The potential is recalculated from file :
     ./_ph0/al.save/charge-density

     Starting wfcs are    4 atomic +    2 random wfcs
     Checking if some PAW data can be deallocated... 

     Band Structure Calculation
     Davidson diagonalization with overlap

     ethr =  3.33E-10,  avg # of iterations = 16.4

     total cpu time spent up to now is       15.6 secs

     End of band structure calculation

     Number of k-points >= 100: set verbosity='high' to print the bands.

     the Fermi energy is     7.9152 ev

     Writing output data file ./_ph0/al.save/

     phonons of Al mesh                                                         

     bravais-lattice index     =            0
     lattice parameter (alat)  =       5.3943  a.u.
     unit-cell volume          =     110.9892 (a.u.)^3
     number of atoms/cell      =            1
     number of atomic types    =            1
     kinetic-energy cut-off    =      30.0000  Ry
     charge density cut-off    =     240.0000  Ry
     convergence threshold     =      1.0E-16
     beta                      =       0.0700
     number of iterations used =            4
     Exchange-correlation= PBE
                           (   1   4   3   4   0   0   0)


     celldm(1)=    5.39426  celldm(2)=    0.00000  celldm(3)=    0.00000
     celldm(4)=    0.00000  celldm(5)=    0.00000  celldm(6)=    0.00000

     crystal axes: (cart. coord. in units of alat)
               a(1) = (  0.7071  0.7071  0.0000 )  
               a(2) = (  0.7071  0.0000  0.7071 )  
               a(3) = (  0.0000  0.7071  0.7071 )  

     reciprocal axes: (cart. coord. in units 2 pi/alat)
               b(1) = (  0.7071  0.7071 -0.7071 )  
               b(2) = (  0.7071 -0.7071  0.7071 )  
               b(3) = ( -0.7071  0.7071  0.7071 )  


     Atoms inside the unit cell: 

     Cartesian axes

     site n.  atom      mass           positions (alat units)
        1     Al  26.9815   tau(    1) = (    0.00000    0.00000    0.00000  )

     Computing dynamical matrix for 
                    q = (  -0.1767767   0.1767767   0.1767767 )

      6 Sym.Ops. (no q -> -q+G )


     G cutoff =  176.8949  (   6879 G-vectors)     FFT grid: ( 27, 27, 27)
     G cutoff =   88.4475  (   2445 G-vectors)  smooth grid: ( 20, 20, 20)

     number of k points=  1120  Marzari-Vanderbilt smearing, width (Ry)=  0.0147

     PseudoPot. # 1 for Al read from file:
     ./pseudo/Al.pbe-n-kjpaw_psl.1.0.0.UPF
     MD5 check sum: cfc449ca30b5f3223ec38ddd88ac046d
     Pseudo is Projector augmented-wave + core cor, Zval =  3.0
     Generated using "atomic" code by A. Dal Corso  v.5.1
     Shape of augmentation charge: PSQ
     Using radial grid of 1135 points,  6 beta functions with: 
                l(1) =   0
                l(2) =   0
                l(3) =   1
                l(4) =   1
                l(5) =   2
                l(6) =   2
     Q(r) pseudized with 0 coefficients 


     Mode symmetry, C_3v (3m)   point group:


     Atomic displacements:
     There are    2 irreducible representations

     Representation     1      1 modes -  To be done

     Representation     2      2 modes -  To be done



     Alpha used in Ewald sum =   2.7000
     PHONON       :     35.63s CPU     36.37s WALL



     Representation #   1 mode #   1

     Self-consistent Calculation

      iter #   1 total cpu time :    38.5 secs   av.it.:   5.0
      thresh= 1.000E-02 alpha_mix =  0.070 |ddv_scf|^2 =  4.172E-03

      iter #   2 total cpu time :    40.1 secs   av.it.:   4.1
      thresh= 6.459E-03 alpha_mix =  0.070 |ddv_scf|^2 =  1.591E-04

      iter #   3 total cpu time :    41.8 secs   av.it.:   4.6
      thresh= 1.261E-03 alpha_mix =  0.070 |ddv_scf|^2 =  2.334E-07

      iter #   4 total cpu time :    43.5 secs   av.it.:   5.7
      thresh= 4.831E-05 alpha_mix =  0.070 |ddv_scf|^2 =  1.758E-07

      iter #   5 total cpu time :    45.5 secs   av.it.:   6.8
      thresh= 4.193E-05 alpha_mix =  0.070 |ddv_scf|^2 =  1.105E-08

      iter #   6 total cpu time :    47.4 secs   av.it.:   6.5
      thresh= 1.051E-05 alpha_mix =  0.070 |ddv_scf|^2 =  1.382E-09

      iter #   7 total cpu time :    49.3 secs   av.it.:   6.7
      thresh= 3.717E-06 alpha_mix =  0.070 |ddv_scf|^2 =  1.861E-10

      iter #   8 total cpu time :    51.0 secs   av.it.:   5.9
      thresh= 1.364E-06 alpha_mix =  0.070 |ddv_scf|^2 =  6.812E-11

      iter #   9 total cpu time :    52.6 secs   av.it.:   6.5
      thresh= 8.254E-07 alpha_mix =  0.070 |ddv_scf|^2 =  4.496E-13

      iter #  10 total cpu time :    54.3 secs   av.it.:   5.9
      thresh= 6.705E-08 alpha_mix =  0.070 |ddv_scf|^2 =  3.683E-13

      iter #  11 total cpu time :    56.1 secs   av.it.:   6.7
      thresh= 6.069E-08 alpha_mix =  0.070 |ddv_scf|^2 =  1.645E-13

      iter #  12 total cpu time :    57.9 secs   av.it.:   6.8
      thresh= 4.056E-08 alpha_mix =  0.070 |ddv_scf|^2 =  4.471E-15

      iter #  13 total cpu time :    59.6 secs   av.it.:   5.9
      thresh= 6.686E-09 alpha_mix =  0.070 |ddv_scf|^2 =  3.090E-15

      iter #  14 total cpu time :    61.4 secs   av.it.:   6.8
      thresh= 5.558E-09 alpha_mix =  0.070 |ddv_scf|^2 =  3.475E-16

      iter #  15 total cpu time :    63.0 secs   av.it.:   5.2
      thresh= 1.864E-09 alpha_mix =  0.070 |ddv_scf|^2 =  2.887E-16

      iter #  16 total cpu time :    64.8 secs   av.it.:   6.6
      thresh= 1.699E-09 alpha_mix =  0.070 |ddv_scf|^2 =  1.598E-17

     End of self-consistent calculation

     Convergence has been achieved 


     Representation #   2 modes #   2   3

     Self-consistent Calculation

      iter #   1 total cpu time :    68.5 secs   av.it.:   3.8
      thresh= 1.000E-02 alpha_mix =  0.070 |ddv_scf|^2 =  6.977E-08

      iter #   2 total cpu time :    71.7 secs   av.it.:   6.0
      thresh= 2.641E-05 alpha_mix =  0.070 |ddv_scf|^2 =  5.979E-08

      iter #   3 total cpu time :    75.3 secs   av.it.:   6.9
      thresh= 2.445E-05 alpha_mix =  0.070 |ddv_scf|^2 =  5.609E-10

      iter #   4 total cpu time :    78.5 secs   av.it.:   5.7
      thresh= 2.368E-06 alpha_mix =  0.070 |ddv_scf|^2 =  4.687E-10

      iter #   5 total cpu time :    81.9 secs   av.it.:   7.0
      thresh= 2.165E-06 alpha_mix =  0.070 |ddv_scf|^2 =  4.852E-12

      iter #   6 total cpu time :    85.2 secs   av.it.:   6.4
      thresh= 2.203E-07 alpha_mix =  0.070 |ddv_scf|^2 =  2.513E-12

      iter #   7 total cpu time :    88.6 secs   av.it.:   7.1
      thresh= 1.585E-07 alpha_mix =  0.070 |ddv_scf|^2 =  1.590E-14

      iter #   8 total cpu time :    92.2 secs   av.it.:   6.4
      thresh= 1.261E-08 alpha_mix =  0.070 |ddv_scf|^2 =  9.170E-15

      iter #   9 total cpu time :    96.0 secs   av.it.:   7.1
      thresh= 9.576E-09 alpha_mix =  0.070 |ddv_scf|^2 =  4.730E-17

     End of self-consistent calculation

     Convergence has been achieved 

     Number of q in the star =    8
     List of q in the star:
          1  -0.176776695   0.176776695   0.176776695
          2  -0.176776695  -0.176776695  -0.176776695
          3   0.176776695  -0.176776695   0.176776695
          4   0.176776695  -0.176776695  -0.176776695
          5  -0.176776695   0.176776695  -0.176776695
          6  -0.176776695  -0.176776695   0.176776695
          7   0.176776695   0.176776695  -0.176776695
          8   0.176776695   0.176776695   0.176776695

     Diagonalizing the dynamical matrix

     q = (   -0.176776695   0.176776695   0.176776695 ) 

 **************************************************************************
     freq (    1) =       3.327196 [THz] =     110.983324 [cm-1]
     freq (    2) =       3.327196 [THz] =     110.983324 [cm-1]
     freq (    3) =       5.971308 [THz] =     199.181385 [cm-1]
 **************************************************************************

     Mode symmetry, C_3v (3m)   point group:

     freq (   1-   2) =        111.0  [cm-1]   --> E    L_3           
     freq (   3-   3) =        199.2  [cm-1]   --> A_1  L_1           

     Calculation of q =    0.3535534  -0.3535534  -0.3535534

     G-vector sticks info
     --------------------
     sticks:   dense  smooth     PW     G-vecs:    dense   smooth      PW
     Sum         475     241    109                 6879     2445     725

     Using Slab Decomposition


     Title: 
     phonons of Al mesh                                                         


     bravais-lattice index     =            0
     lattice parameter (alat)  =       5.3943  a.u.
     unit-cell volume          =     110.9892 (a.u.)^3
     number of atoms/cell      =            1
     number of atomic types    =            1
     number of electrons       =         3.00
     number of Kohn-Sham states=            6
     kinetic-energy cutoff     =      30.0000  Ry
     charge density cutoff     =     240.0000  Ry
     Exchange-correlation= PBE
                           (   1   4   3   4   0   0   0)

     celldm(1)=   5.394260  celldm(2)=   0.000000  celldm(3)=   0.000000
     celldm(4)=   0.000000  celldm(5)=   0.000000  celldm(6)=   0.000000

     crystal axes: (cart. coord. in units of alat)
               a(1) = (   0.707107   0.707107   0.000000 )  
               a(2) = (   0.707107   0.000000   0.707107 )  
               a(3) = (   0.000000   0.707107   0.707107 )  

     reciprocal axes: (cart. coord. in units 2 pi/alat)
               b(1) = (  0.707107  0.707107 -0.707107 )  
               b(2) = (  0.707107 -0.707107  0.707107 )  
               b(3) = ( -0.707107  0.707107  0.707107 )  


     PseudoPot. # 1 for Al read from file:
     ./pseudo/Al.pbe-n-kjpaw_psl.1.0.0.UPF
     MD5 check sum: cfc449ca30b5f3223ec38ddd88ac046d
     Pseudo is Projector augmented-wave + core cor, Zval =  3.0
     Generated using "atomic" code by A. Dal Corso  v.5.1
     Shape of augmentation charge: PSQ
     Using radial grid of 1135 points,  6 beta functions with: 
                l(1) =   0
                l(2) =   0
                l(3) =   1
                l(4) =   1
                l(5) =   2
                l(6) =   2
     Q(r) pseudized with 0 coefficients 


     atomic species   valence    mass     pseudopotential
        Al             3.00    26.98154     Al( 1.00)

     48 Sym. Ops., with inversion, found



   Cartesian axes

     site n.     atom                  positions (alat units)
         1           Al  tau(   1) = (   0.0000000   0.0000000   0.0000000  )

     number of k points=   576  Marzari-Vanderbilt smearing, width (Ry)=  0.0147

     Number of k-points >= 100: set verbosity='high' to print them.

     Dense  grid:     6879 G-vectors     FFT dimensions: (  27,  27,  27)

     Smooth grid:     2445 G-vectors     FFT dimensions: (  20,  20,  20)

     Estimated max dynamical RAM per process >      23.29 MB

     The potential is recalculated from file :
     ./_ph0/al.save/charge-density

     Starting wfcs are    4 atomic +    2 random wfcs
     Checking if some PAW data can be deallocated... 

     Band Structure Calculation
     Davidson diagonalization with overlap

     ethr =  3.33E-10,  avg # of iterations = 16.5

     total cpu time spent up to now is       24.0 secs

     End of band structure calculation

     Number of k-points >= 100: set verbosity='high' to print the bands.

     the Fermi energy is     7.9152 ev

     Writing output data file ./_ph0/al.save/

     phonons of Al mesh                                                         

     bravais-lattice index     =            0
     lattice parameter (alat)  =       5.3943  a.u.
     unit-cell volume          =     110.9892 (a.u.)^3
     number of atoms/cell      =            1
     number of atomic types    =            1
     kinetic-energy cut-off    =      30.0000  Ry
     charge density cut-off    =     240.0000  Ry
     convergence threshold     =      1.0E-16
     beta                      =       0.0700
     number of iterations used =            4
     Exchange-correlation= PBE
                           (   1   4   3   4   0   0   0)


     celldm(1)=    5.39426  celldm(2)=    0.00000  celldm(3)=    0.00000
     celldm(4)=    0.00000  celldm(5)=    0.00000  celldm(6)=    0.00000

     crystal axes: (cart. coord. in units of alat)
               a(1) = (  0.7071  0.7071  0.0000 )  
               a(2) = (  0.7071  0.0000  0.7071 )  
               a(3) = (  0.0000  0.7071  0.7071 )  

     reciprocal axes: (cart. coord. in units 2 pi/alat)
               b(1) = (  0.7071  0.7071 -0.7071 )  
               b(2) = (  0.7071 -0.7071  0.7071 )  
               b(3) = ( -0.7071  0.7071  0.7071 )  


     Atoms inside the unit cell: 

     Cartesian axes

     site n.  atom      mass           positions (alat units)
        1     Al  26.9815   tau(    1) = (    0.00000    0.00000    0.00000  )

     Computing dynamical matrix for 
                    q = (   0.3535534  -0.3535534  -0.3535534 )

     13 Sym.Ops. (with q -> -q+G )


     G cutoff =  176.8949  (   6879 G-vectors)     FFT grid: ( 27, 27, 27)
     G cutoff =   88.4475  (   2445 G-vectors)  smooth grid: ( 20, 20, 20)

     number of k points=   576  Marzari-Vanderbilt smearing, width (Ry)=  0.0147

     PseudoPot. # 1 for Al read from file:
     ./pseudo/Al.pbe-n-kjpaw_psl.1.0.0.UPF
     MD5 check sum: cfc449ca30b5f3223ec38ddd88ac046d
     Pseudo is Projector augmented-wave + core cor, Zval =  3.0
     Generated using "atomic" code by A. Dal Corso  v.5.1
     Shape of augmentation charge: PSQ
     Using radial grid of 1135 points,  6 beta functions with: 
                l(1) =   0
                l(2) =   0
                l(3) =   1
                l(4) =   1
                l(5) =   2
                l(6) =   2
     Q(r) pseudized with 0 coefficients 


     Mode symmetry, D_3d (-3m)  point group:


     Atomic displacements:
     There are    2 irreducible representations

     Representation     1      1 modes -  To be done

     Representation     2      2 modes -  To be done



     Alpha used in Ewald sum =   2.7000
     PHONON       :   1m42.36s CPU   1m45.88s WALL



     Representation #   1 mode #   1

     Self-consistent Calculation

      iter #   1 total cpu time :   107.1 secs   av.it.:   4.9
      thresh= 1.000E-02 alpha_mix =  0.070 |ddv_scf|^2 =  3.588E-05

      iter #   2 total cpu time :   108.2 secs   av.it.:   5.4
      thresh= 5.990E-04 alpha_mix =  0.070 |ddv_scf|^2 =  2.274E-05

      iter #   3 total cpu time :   109.4 secs   av.it.:   6.4
      thresh= 4.768E-04 alpha_mix =  0.070 |ddv_scf|^2 =  9.813E-08

      iter #   4 total cpu time :   110.5 secs   av.it.:   5.4
      thresh= 3.133E-05 alpha_mix =  0.070 |ddv_scf|^2 =  6.598E-08

      iter #   5 total cpu time :   111.7 secs   av.it.:   6.5
      thresh= 2.569E-05 alpha_mix =  0.070 |ddv_scf|^2 =  8.583E-10

      iter #   6 total cpu time :   112.8 secs   av.it.:   5.2
      thresh= 2.930E-06 alpha_mix =  0.070 |ddv_scf|^2 =  4.108E-10

      iter #   7 total cpu time :   113.9 secs   av.it.:   5.5
      thresh= 2.027E-06 alpha_mix =  0.070 |ddv_scf|^2 =  5.519E-14

      iter #   8 total cpu time :   115.2 secs   av.it.:   5.6
      thresh= 2.349E-08 alpha_mix =  0.070 |ddv_scf|^2 =  4.737E-14

      iter #   9 total cpu time :   116.5 secs   av.it.:   6.4
      thresh= 2.177E-08 alpha_mix =  0.070 |ddv_scf|^2 =  2.761E-16

      iter #  10 total cpu time :   117.7 secs   av.it.:   6.3
      thresh= 1.662E-09 alpha_mix =  0.070 |ddv_scf|^2 =  1.874E-17

     End of self-consistent calculation

     Convergence has been achieved 


     Representation #   2 modes #   2   3

     Self-consistent Calculation

      iter #   1 total cpu time :   120.5 secs   av.it.:   3.9
      thresh= 1.000E-02 alpha_mix =  0.070 |ddv_scf|^2 =  6.395E-08

      iter #   2 total cpu time :   122.8 secs   av.it.:   6.1
      thresh= 2.529E-05 alpha_mix =  0.070 |ddv_scf|^2 =  5.466E-08

      iter #   3 total cpu time :   125.2 secs   av.it.:   6.9
      thresh= 2.338E-05 alpha_mix =  0.070 |ddv_scf|^2 =  6.239E-10

      iter #   4 total cpu time :   127.5 secs   av.it.:   6.3
      thresh= 2.498E-06 alpha_mix =  0.070 |ddv_scf|^2 =  4.692E-10

      iter #   5 total cpu time :   129.8 secs   av.it.:   7.2
      thresh= 2.166E-06 alpha_mix =  0.070 |ddv_scf|^2 =  6.987E-12

      iter #   6 total cpu time :   132.2 secs   av.it.:   5.1
      thresh= 2.643E-07 alpha_mix =  0.070 |ddv_scf|^2 =  5.695E-12

      iter #   7 total cpu time :   134.5 secs   av.it.:   6.9
      thresh= 2.386E-07 alpha_mix =  0.070 |ddv_scf|^2 =  8.111E-16

      iter #   8 total cpu time :   136.7 secs   av.it.:   5.5
      thresh= 2.848E-09 alpha_mix =  0.070 |ddv_scf|^2 =  6.999E-16

      iter #   9 total cpu time :   138.9 secs   av.it.:   6.3
      thresh= 2.646E-09 alpha_mix =  0.070 |ddv_scf|^2 =  7.944E-18

     End of self-consistent calculation

     Convergence has been achieved 

     Number of q in the star =    4
     List of q in the star:
          1   0.353553391  -0.353553391  -0.353553391
          2   0.353553391   0.353553391   0.353553391
          3  -0.353553391  -0.353553391   0.353553391
          4  -0.353553391   0.353553391  -0.353553391

     Diagonalizing the dynamical matrix

     q = (    0.353553391  -0.353553391  -0.353553391 ) 

 **************************************************************************
     freq (    1) =       4.017202 [THz] =     133.999447 [cm-1]
     freq (    2) =       4.017202 [THz] =     133.999447 [cm-1]
     freq (    3) =       9.488041 [THz] =     316.486984 [cm-1]
 **************************************************************************

     Mode symmetry, D_3d (-3m)  point group:

     freq (   1-   2) =        134.0  [cm-1]   --> E_u  L_3'          
     freq (   3-   3) =        316.5  [cm-1]   --> A_2u L_2'          

     Calculation of q =    0.0000000   0.0000000   0.3535534

     G-vector sticks info
     --------------------
     sticks:   dense  smooth     PW     G-vecs:    dense   smooth      PW
     Sum         475     241     91                 6879     2445     609

     Using Slab Decomposition


     Title: 
     phonons of Al mesh                                                         


     bravais-lattice index     =            0
     lattice parameter (alat)  =       5.3943  a.u.
     unit-cell volume          =     110.9892 (a.u.)^3
     number of atoms/cell      =            1
     number of atomic types    =            1
     number of electrons       =         3.00
     number of Kohn-Sham states=            6
     kinetic-energy cutoff     =      30.0000  Ry
     charge density cutoff     =     240.0000  Ry
     Exchange-correlation= PBE
                           (   1   4   3   4   0   0   0)

     celldm(1)=   5.394260  celldm(2)=   0.000000  celldm(3)=   0.000000
     celldm(4)=   0.000000  celldm(5)=   0.000000  celldm(6)=   0.000000

     crystal axes: (cart. coord. in units of alat)
               a(1) = (   0.707107   0.707107   0.000000 )  
               a(2) = (   0.707107   0.000000   0.707107 )  
               a(3) = (   0.000000   0.707107   0.707107 )  

     reciprocal axes: (cart. coord. in units 2 pi/alat)
               b(1) = (  0.707107  0.707107 -0.707107 )  
               b(2) = (  0.707107 -0.707107  0.707107 )  
               b(3) = ( -0.707107  0.707107  0.707107 )  


     PseudoPot. # 1 for Al read from file:
     ./pseudo/Al.pbe-n-kjpaw_psl.1.0.0.UPF
     MD5 check sum: cfc449ca30b5f3223ec38ddd88ac046d
     Pseudo is Projector augmented-wave + core cor, Zval =  3.0
     Generated using "atomic" code by A. Dal Corso  v.5.1
     Shape of augmentation charge: PSQ
     Using radial grid of 1135 points,  6 beta functions with: 
                l(1) =   0
                l(2) =   0
                l(3) =   1
                l(4) =   1
                l(5) =   2
                l(6) =   2
     Q(r) pseudized with 0 coefficients 


     atomic species   valence    mass     pseudopotential
        Al             3.00    26.98154     Al( 1.00)

     48 Sym. Ops., with inversion, found



   Cartesian axes

     site n.     atom                  positions (alat units)
         1           Al  tau(   1) = (   0.0000000   0.0000000   0.0000000  )

     number of k points=   896  Marzari-Vanderbilt smearing, width (Ry)=  0.0147

     Number of k-points >= 100: set verbosity='high' to print them.

     Dense  grid:     6879 G-vectors     FFT dimensions: (  27,  27,  27)

     Smooth grid:     2445 G-vectors     FFT dimensions: (  20,  20,  20)

     Estimated max dynamical RAM per process >      23.26 MB

     The potential is recalculated from file :
     ./_ph0/al.save/charge-density

     Starting wfcs are    4 atomic +    2 random wfcs
     Checking if some PAW data can be deallocated... 

     Band Structure Calculation
     Davidson diagonalization with overlap

     ethr =  3.33E-10,  avg # of iterations = 16.1

     total cpu time spent up to now is       34.6 secs

     End of band structure calculation

     Number of k-points >= 100: set verbosity='high' to print the bands.

     the Fermi energy is     7.9152 ev

     Writing output data file ./_ph0/al.save/

     phonons of Al mesh                                                         

     bravais-lattice index     =            0
     lattice parameter (alat)  =       5.3943  a.u.
     unit-cell volume          =     110.9892 (a.u.)^3
     number of atoms/cell      =            1
     number of atomic types    =            1
     kinetic-energy cut-off    =      30.0000  Ry
     charge density cut-off    =     240.0000  Ry
     convergence threshold     =      1.0E-16
     beta                      =       0.0700
     number of iterations used =            4
     Exchange-correlation= PBE
                           (   1   4   3   4   0   0   0)


     celldm(1)=    5.39426  celldm(2)=    0.00000  celldm(3)=    0.00000
     celldm(4)=    0.00000  celldm(5)=    0.00000  celldm(6)=    0.00000

     crystal axes: (cart. coord. in units of alat)
               a(1) = (  0.7071  0.7071  0.0000 )  
               a(2) = (  0.7071  0.0000  0.7071 )  
               a(3) = (  0.0000  0.7071  0.7071 )  

     reciprocal axes: (cart. coord. in units 2 pi/alat)
               b(1) = (  0.7071  0.7071 -0.7071 )  
               b(2) = (  0.7071 -0.7071  0.7071 )  
               b(3) = ( -0.7071  0.7071  0.7071 )  


     Atoms inside the unit cell: 

     Cartesian axes

     site n.  atom      mass           positions (alat units)
        1     Al  26.9815   tau(    1) = (    0.00000    0.00000    0.00000  )

     Computing dynamical matrix for 
                    q = (   0.0000000   0.0000000   0.3535534 )

      8 Sym.Ops. (no q -> -q+G )


     G cutoff =  176.8949  (   6879 G-vectors)     FFT grid: ( 27, 27, 27)
     G cutoff =   88.4475  (   2445 G-vectors)  smooth grid: ( 20, 20, 20)

     number of k points=   896  Marzari-Vanderbilt smearing, width (Ry)=  0.0147

     PseudoPot. # 1 for Al read from file:
     ./pseudo/Al.pbe-n-kjpaw_psl.1.0.0.UPF
     MD5 check sum: cfc449ca30b5f3223ec38ddd88ac046d
     Pseudo is Projector augmented-wave + core cor, Zval =  3.0
     Generated using "atomic" code by A. Dal Corso  v.5.1
     Shape of augmentation charge: PSQ
     Using radial grid of 1135 points,  6 beta functions with: 
                l(1) =   0
                l(2) =   0
                l(3) =   1
                l(4) =   1
                l(5) =   2
                l(6) =   2
     Q(r) pseudized with 0 coefficients 


     Mode symmetry, C_4v (4mm)  point group:


     Atomic displacements:
     There are    2 irreducible representations

     Representation     1      1 modes -  To be done

     Representation     2      2 modes -  To be done



     Alpha used in Ewald sum =   2.7000
     PHONON       :   2m26.43s CPU   2m31.43s WALL



     Representation #   1 mode #   1

     Self-consistent Calculation

      iter #   1 total cpu time :   153.2 secs   av.it.:   4.6
      thresh= 1.000E-02 alpha_mix =  0.070 |ddv_scf|^2 =  1.238E-03

      iter #   2 total cpu time :   154.6 secs   av.it.:   4.2
      thresh= 3.519E-03 alpha_mix =  0.070 |ddv_scf|^2 =  2.544E-04

      iter #   3 total cpu time :   156.0 secs   av.it.:   4.6
      thresh= 1.595E-03 alpha_mix =  0.070 |ddv_scf|^2 =  1.595E-07

      iter #   4 total cpu time :   157.3 secs   av.it.:   5.3
      thresh= 3.994E-05 alpha_mix =  0.070 |ddv_scf|^2 =  1.306E-07

      iter #   5 total cpu time :   159.0 secs   av.it.:   6.6
      thresh= 3.614E-05 alpha_mix =  0.070 |ddv_scf|^2 =  1.486E-09

      iter #   6 total cpu time :   160.5 secs   av.it.:   5.4
      thresh= 3.854E-06 alpha_mix =  0.070 |ddv_scf|^2 =  1.142E-09

      iter #   7 total cpu time :   162.1 secs   av.it.:   6.5
      thresh= 3.379E-06 alpha_mix =  0.070 |ddv_scf|^2 =  1.276E-11

      iter #   8 total cpu time :   163.5 secs   av.it.:   5.5
      thresh= 3.572E-07 alpha_mix =  0.070 |ddv_scf|^2 =  1.124E-11

      iter #   9 total cpu time :   165.0 secs   av.it.:   6.8
      thresh= 3.352E-07 alpha_mix =  0.070 |ddv_scf|^2 =  3.909E-14

      iter #  10 total cpu time :   166.3 secs   av.it.:   5.6
      thresh= 1.977E-08 alpha_mix =  0.070 |ddv_scf|^2 =  3.297E-14

      iter #  11 total cpu time :   167.8 secs   av.it.:   6.5
      thresh= 1.816E-08 alpha_mix =  0.070 |ddv_scf|^2 =  1.271E-14

      iter #  12 total cpu time :   169.4 secs   av.it.:   6.5
      thresh= 1.127E-08 alpha_mix =  0.070 |ddv_scf|^2 =  1.799E-15

      iter #  13 total cpu time :   170.9 secs   av.it.:   5.5
      thresh= 4.242E-09 alpha_mix =  0.070 |ddv_scf|^2 =  2.317E-16

      iter #  14 total cpu time :   172.3 secs   av.it.:   5.2
      thresh= 1.522E-09 alpha_mix =  0.070 |ddv_scf|^2 =  1.874E-16

      iter #  15 total cpu time :   173.8 secs   av.it.:   6.7
      thresh= 1.369E-09 alpha_mix =  0.070 |ddv_scf|^2 =  1.765E-17

     End of self-consistent calculation

     Convergence has been achieved 


     Representation #   2 modes #   2   3

     Self-consistent Calculation

      iter #   1 total cpu time :   177.0 secs   av.it.:   4.1
      thresh= 1.000E-02 alpha_mix =  0.070 |ddv_scf|^2 =  5.986E-08

      iter #   2 total cpu time :   180.1 secs   av.it.:   6.2
      thresh= 2.447E-05 alpha_mix =  0.070 |ddv_scf|^2 =  5.134E-08

      iter #   3 total cpu time :   183.3 secs   av.it.:   6.9
      thresh= 2.266E-05 alpha_mix =  0.070 |ddv_scf|^2 =  6.237E-10

      iter #   4 total cpu time :   186.2 secs   av.it.:   6.7
      thresh= 2.497E-06 alpha_mix =  0.070 |ddv_scf|^2 =  3.726E-10

      iter #   5 total cpu time :   189.1 secs   av.it.:   6.4
      thresh= 1.930E-06 alpha_mix =  0.070 |ddv_scf|^2 =  1.285E-12

      iter #   6 total cpu time :   191.8 secs   av.it.:   5.7
      thresh= 1.134E-07 alpha_mix =  0.070 |ddv_scf|^2 =  9.155E-13

      iter #   7 total cpu time :   194.8 secs   av.it.:   7.2
      thresh= 9.568E-08 alpha_mix =  0.070 |ddv_scf|^2 =  1.919E-14

      iter #   8 total cpu time :   197.4 secs   av.it.:   5.6
      thresh= 1.385E-08 alpha_mix =  0.070 |ddv_scf|^2 =  1.410E-14

      iter #   9 total cpu time :   200.4 secs   av.it.:   6.9
      thresh= 1.188E-08 alpha_mix =  0.070 |ddv_scf|^2 =  5.500E-18

     End of self-consistent calculation

     Convergence has been achieved 

     Number of q in the star =    6
     List of q in the star:
          1   0.000000000   0.000000000   0.353553391
          2   0.000000000  -0.353553391   0.000000000
          3   0.353553391   0.000000000   0.000000000
          4   0.000000000   0.000000000  -0.353553391
          5  -0.353553391   0.000000000   0.000000000
          6   0.000000000   0.353553391   0.000000000

     Diagonalizing the dynamical matrix

     q = (    0.000000000   0.000000000   0.353553391 ) 

 **************************************************************************
     freq (    1) =       4.088771 [THz] =     136.386733 [cm-1]
     freq (    2) =       4.088771 [THz] =     136.386733 [cm-1]
     freq (    3) =       6.873726 [THz] =     229.282807 [cm-1]
 **************************************************************************

     Mode symmetry, C_4v (4mm)  point group:

     freq (   1-   2) =        136.4  [cm-1]   --> E    G_5 D_5       
     freq (   3-   3) =        229.3  [cm-1]   --> A_1  G_1 D_1       

     Calculation of q =    0.5303301  -0.5303301  -0.1767767

     G-vector sticks info
     --------------------
     sticks:   dense  smooth     PW     G-vecs:    dense   smooth      PW
     Sum         475     241    109                 6879     2445     749

     Using Slab Decomposition


     Title: 
     phonons of Al mesh                                                         


     bravais-lattice index     =            0
     lattice parameter (alat)  =       5.3943  a.u.
     unit-cell volume          =     110.9892 (a.u.)^3
     number of atoms/cell      =            1
     number of atomic types    =            1
     number of electrons       =         3.00
     number of Kohn-Sham states=            6
     kinetic-energy cutoff     =      30.0000  Ry
     charge density cutoff     =     240.0000  Ry
     Exchange-correlation= PBE
                           (   1   4   3   4   0   0   0)

     celldm(1)=   5.394260  celldm(2)=   0.000000  celldm(3)=   0.000000
     celldm(4)=   0.000000  celldm(5)=   0.000000  celldm(6)=   0.000000

     crystal axes: (cart. coord. in units of alat)
               a(1) = (   0.707107   0.707107   0.000000 )  
               a(2) = (   0.707107   0.000000   0.707107 )  
               a(3) = (   0.000000   0.707107   0.707107 )  

     reciprocal axes: (cart. coord. in units 2 pi/alat)
               b(1) = (  0.707107  0.707107 -0.707107 )  
               b(2) = (  0.707107 -0.707107  0.707107 )  
               b(3) = ( -0.707107  0.707107  0.707107 )  


     PseudoPot. # 1 for Al read from file:
     ./pseudo/Al.pbe-n-kjpaw_psl.1.0.0.UPF
     MD5 check sum: cfc449ca30b5f3223ec38ddd88ac046d
     Pseudo is Projector augmented-wave + core cor, Zval =  3.0
     Generated using "atomic" code by A. Dal Corso  v.5.1
     Shape of augmentation charge: PSQ
     Using radial grid of 1135 points,  6 beta functions with: 
                l(1) =   0
                l(2) =   0
                l(3) =   1
                l(4) =   1
                l(5) =   2
                l(6) =   2
     Q(r) pseudized with 0 coefficients 


     atomic species   valence    mass     pseudopotential
        Al             3.00    26.98154     Al( 1.00)

     48 Sym. Ops., with inversion, found



   Cartesian axes

     site n.     atom                  positions (alat units)
         1           Al  tau(   1) = (   0.0000000   0.0000000   0.0000000  )

     number of k points=  2940  Marzari-Vanderbilt smearing, width (Ry)=  0.0147

     Number of k-points >= 100: set verbosity='high' to print them.

     Dense  grid:     6879 G-vectors     FFT dimensions: (  27,  27,  27)

     Smooth grid:     2445 G-vectors     FFT dimensions: (  20,  20,  20)

     Estimated max dynamical RAM per process >      23.30 MB

     The potential is recalculated from file :
     ./_ph0/al.save/charge-density

     Starting wfcs are    4 atomic +    2 random wfcs
     Checking if some PAW data can be deallocated... 

     Band Structure Calculation
     Davidson diagonalization with overlap

     ethr =  3.33E-10,  avg # of iterations = 16.0

     total cpu time spent up to now is       68.2 secs

     End of band structure calculation

     Number of k-points >= 100: set verbosity='high' to print the bands.

     the Fermi energy is     7.9152 ev

     Writing output data file ./_ph0/al.save/

     phonons of Al mesh                                                         

     bravais-lattice index     =            0
     lattice parameter (alat)  =       5.3943  a.u.
     unit-cell volume          =     110.9892 (a.u.)^3
     number of atoms/cell      =            1
     number of atomic types    =            1
     kinetic-energy cut-off    =      30.0000  Ry
     charge density cut-off    =     240.0000  Ry
     convergence threshold     =      1.0E-16
     beta                      =       0.0700
     number of iterations used =            4
     Exchange-correlation= PBE
                           (   1   4   3   4   0   0   0)


     celldm(1)=    5.39426  celldm(2)=    0.00000  celldm(3)=    0.00000
     celldm(4)=    0.00000  celldm(5)=    0.00000  celldm(6)=    0.00000

     crystal axes: (cart. coord. in units of alat)
               a(1) = (  0.7071  0.7071  0.0000 )  
               a(2) = (  0.7071  0.0000  0.7071 )  
               a(3) = (  0.0000  0.7071  0.7071 )  

     reciprocal axes: (cart. coord. in units 2 pi/alat)
               b(1) = (  0.7071  0.7071 -0.7071 )  
               b(2) = (  0.7071 -0.7071  0.7071 )  
               b(3) = ( -0.7071  0.7071  0.7071 )  


     Atoms inside the unit cell: 

     Cartesian axes

     site n.  atom      mass           positions (alat units)
        1     Al  26.9815   tau(    1) = (    0.00000    0.00000    0.00000  )

     Computing dynamical matrix for 
                    q = (   0.5303301  -0.5303301  -0.1767767 )

      2 Sym.Ops. (no q -> -q+G )


     G cutoff =  176.8949  (   6879 G-vectors)     FFT grid: ( 27, 27, 27)
     G cutoff =   88.4475  (   2445 G-vectors)  smooth grid: ( 20, 20, 20)

     number of k points=  2940  Marzari-Vanderbilt smearing, width (Ry)=  0.0147

     PseudoPot. # 1 for Al read from file:
     ./pseudo/Al.pbe-n-kjpaw_psl.1.0.0.UPF
     MD5 check sum: cfc449ca30b5f3223ec38ddd88ac046d
     Pseudo is Projector augmented-wave + core cor, Zval =  3.0
     Generated using "atomic" code by A. Dal Corso  v.5.1
     Shape of augmentation charge: PSQ
     Using radial grid of 1135 points,  6 beta functions with: 
                l(1) =   0
                l(2) =   0
                l(3) =   1
                l(4) =   1
                l(5) =   2
                l(6) =   2
     Q(r) pseudized with 0 coefficients 


     Mode symmetry, C_s (m)     point group:


     Atomic displacements:
     There are    3 irreducible representations

     Representation     1      1 modes -  To be done

     Representation     2      1 modes -  To be done

     Representation     3      1 modes -  To be done



     Alpha used in Ewald sum =   2.7000
     PHONON       :   3m50.27s CPU   3m58.22s WALL



     Representation #   1 mode #   1

     Self-consistent Calculation

      iter #   1 total cpu time :   242.3 secs   av.it.:   4.9
      thresh= 1.000E-02 alpha_mix =  0.070 |ddv_scf|^2 =  2.626E-05

      iter #   2 total cpu time :   245.6 secs   av.it.:   5.4
      thresh= 5.124E-04 alpha_mix =  0.070 |ddv_scf|^2 =  1.598E-05

      iter #   3 total cpu time :   249.5 secs   av.it.:   6.3
      thresh= 3.998E-04 alpha_mix =  0.070 |ddv_scf|^2 =  2.322E-07

      iter #   4 total cpu time :   253.4 secs   av.it.:   6.4
      thresh= 4.819E-05 alpha_mix =  0.070 |ddv_scf|^2 =  5.634E-08

      iter #   5 total cpu time :   257.1 secs   av.it.:   6.6
      thresh= 2.374E-05 alpha_mix =  0.070 |ddv_scf|^2 =  2.069E-08

      iter #   6 total cpu time :   260.7 secs   av.it.:   6.8
      thresh= 1.439E-05 alpha_mix =  0.070 |ddv_scf|^2 =  3.353E-10

      iter #   7 total cpu time :   264.1 secs   av.it.:   5.9
      thresh= 1.831E-06 alpha_mix =  0.070 |ddv_scf|^2 =  2.638E-10

      iter #   8 total cpu time :   267.7 secs   av.it.:   6.6
      thresh= 1.624E-06 alpha_mix =  0.070 |ddv_scf|^2 =  1.231E-11

      iter #   9 total cpu time :   270.9 secs   av.it.:   5.3
      thresh= 3.509E-07 alpha_mix =  0.070 |ddv_scf|^2 =  9.820E-12

      iter #  10 total cpu time :   274.4 secs   av.it.:   6.6
      thresh= 3.134E-07 alpha_mix =  0.070 |ddv_scf|^2 =  2.393E-12

      iter #  11 total cpu time :   277.7 secs   av.it.:   5.7
      thresh= 1.547E-07 alpha_mix =  0.070 |ddv_scf|^2 =  1.719E-12

      iter #  12 total cpu time :   281.3 secs   av.it.:   6.8
      thresh= 1.311E-07 alpha_mix =  0.070 |ddv_scf|^2 =  6.000E-14

      iter #  13 total cpu time :   284.5 secs   av.it.:   5.3
      thresh= 2.449E-08 alpha_mix =  0.070 |ddv_scf|^2 =  5.042E-14

      iter #  14 total cpu time :   288.2 secs   av.it.:   6.9
      thresh= 2.245E-08 alpha_mix =  0.070 |ddv_scf|^2 =  4.995E-15

      iter #  15 total cpu time :   291.4 secs   av.it.:   5.5
      thresh= 7.067E-09 alpha_mix =  0.070 |ddv_scf|^2 =  4.196E-15

      iter #  16 total cpu time :   295.1 secs   av.it.:   6.6
      thresh= 6.478E-09 alpha_mix =  0.070 |ddv_scf|^2 =  1.856E-15

      iter #  17 total cpu time :   298.6 secs   av.it.:   6.1
      thresh= 4.308E-09 alpha_mix =  0.070 |ddv_scf|^2 =  1.400E-15

      iter #  18 total cpu time :   302.0 secs   av.it.:   5.8
      thresh= 3.741E-09 alpha_mix =  0.070 |ddv_scf|^2 =  1.113E-15

      iter #  19 total cpu time :   305.6 secs   av.it.:   6.4
      thresh= 3.336E-09 alpha_mix =  0.070 |ddv_scf|^2 =  2.639E-16

      iter #  20 total cpu time :   308.8 secs   av.it.:   5.2
      thresh= 1.624E-09 alpha_mix =  0.070 |ddv_scf|^2 =  2.201E-16

      iter #  21 total cpu time :   312.5 secs   av.it.:   6.9
      thresh= 1.484E-09 alpha_mix =  0.070 |ddv_scf|^2 =  1.535E-17

     End of self-consistent calculation

     Convergence has been achieved 


     Representation #   2 mode #   2

     Self-consistent Calculation

      iter #   1 total cpu time :   317.1 secs   av.it.:   4.6
      thresh= 1.000E-02 alpha_mix =  0.070 |ddv_scf|^2 =  4.421E-06

      iter #   2 total cpu time :   320.3 secs   av.it.:   5.6
      thresh= 2.103E-04 alpha_mix =  0.070 |ddv_scf|^2 =  2.785E-06

      iter #   3 total cpu time :   323.8 secs   av.it.:   6.4
      thresh= 1.669E-04 alpha_mix =  0.070 |ddv_scf|^2 =  1.468E-07

      iter #   4 total cpu time :   327.7 secs   av.it.:   6.6
      thresh= 3.831E-05 alpha_mix =  0.070 |ddv_scf|^2 =  3.162E-08

      iter #   5 total cpu time :   331.5 secs   av.it.:   6.6
      thresh= 1.778E-05 alpha_mix =  0.070 |ddv_scf|^2 =  1.400E-08

      iter #   6 total cpu time :   335.4 secs   av.it.:   6.8
      thresh= 1.183E-05 alpha_mix =  0.070 |ddv_scf|^2 =  4.593E-10

      iter #   7 total cpu time :   338.7 secs   av.it.:   5.5
      thresh= 2.143E-06 alpha_mix =  0.070 |ddv_scf|^2 =  3.582E-10

      iter #   8 total cpu time :   342.3 secs   av.it.:   6.8
      thresh= 1.893E-06 alpha_mix =  0.070 |ddv_scf|^2 =  2.076E-11

      iter #   9 total cpu time :   345.4 secs   av.it.:   5.0
      thresh= 4.556E-07 alpha_mix =  0.070 |ddv_scf|^2 =  1.734E-11

      iter #  10 total cpu time :   349.1 secs   av.it.:   6.6
      thresh= 4.164E-07 alpha_mix =  0.070 |ddv_scf|^2 =  1.298E-12

      iter #  11 total cpu time :   352.7 secs   av.it.:   5.5
      thresh= 1.139E-07 alpha_mix =  0.070 |ddv_scf|^2 =  9.840E-13

      iter #  12 total cpu time :   356.7 secs   av.it.:   6.8
      thresh= 9.920E-08 alpha_mix =  0.070 |ddv_scf|^2 =  1.328E-13

      iter #  13 total cpu time :   360.1 secs   av.it.:   6.0
      thresh= 3.645E-08 alpha_mix =  0.070 |ddv_scf|^2 =  9.956E-14

      iter #  14 total cpu time :   363.6 secs   av.it.:   6.4
      thresh= 3.155E-08 alpha_mix =  0.070 |ddv_scf|^2 =  6.131E-14

      iter #  15 total cpu time :   367.1 secs   av.it.:   6.6
      thresh= 2.476E-08 alpha_mix =  0.070 |ddv_scf|^2 =  3.087E-14

      iter #  16 total cpu time :   370.4 secs   av.it.:   5.5
      thresh= 1.757E-08 alpha_mix =  0.070 |ddv_scf|^2 =  2.616E-14

      iter #  17 total cpu time :   373.9 secs   av.it.:   6.4
      thresh= 1.617E-08 alpha_mix =  0.070 |ddv_scf|^2 =  2.458E-15

      iter #  18 total cpu time :   377.0 secs   av.it.:   5.1
      thresh= 4.958E-09 alpha_mix =  0.070 |ddv_scf|^2 =  1.908E-15

      iter #  19 total cpu time :   380.6 secs   av.it.:   6.6
      thresh= 4.368E-09 alpha_mix =  0.070 |ddv_scf|^2 =  1.312E-16

      iter #  20 total cpu time :   383.8 secs   av.it.:   5.5
      thresh= 1.145E-09 alpha_mix =  0.070 |ddv_scf|^2 =  1.006E-16

      iter #  21 total cpu time :   387.9 secs   av.it.:   6.8
      thresh= 1.003E-09 alpha_mix =  0.070 |ddv_scf|^2 =  1.260E-17

     End of self-consistent calculation

     Convergence has been achieved 


     Representation #   3 mode #   3

     Self-consistent Calculation

      iter #   1 total cpu time :   392.5 secs   av.it.:   4.0
      thresh= 1.000E-02 alpha_mix =  0.070 |ddv_scf|^2 =  2.251E-07

      iter #   2 total cpu time :   395.7 secs   av.it.:   5.6
      thresh= 4.745E-05 alpha_mix =  0.070 |ddv_scf|^2 =  1.932E-07

      iter #   3 total cpu time :   399.6 secs   av.it.:   6.4
      thresh= 4.395E-05 alpha_mix =  0.070 |ddv_scf|^2 =  2.690E-09

      iter #   4 total cpu time :   403.5 secs   av.it.:   6.3
      thresh= 5.187E-06 alpha_mix =  0.070 |ddv_scf|^2 =  1.568E-09

      iter #   5 total cpu time :   407.2 secs   av.it.:   6.3
      thresh= 3.960E-06 alpha_mix =  0.070 |ddv_scf|^2 =  1.653E-11

      iter #   6 total cpu time :   410.8 secs   av.it.:   5.0
      thresh= 4.066E-07 alpha_mix =  0.070 |ddv_scf|^2 =  1.260E-11

      iter #   7 total cpu time :   414.7 secs   av.it.:   6.7
      thresh= 3.550E-07 alpha_mix =  0.070 |ddv_scf|^2 =  8.396E-14

      iter #   8 total cpu time :   418.1 secs   av.it.:   5.3
      thresh= 2.898E-08 alpha_mix =  0.070 |ddv_scf|^2 =  6.378E-14

      iter #   9 total cpu time :   421.8 secs   av.it.:   6.5
      thresh= 2.525E-08 alpha_mix =  0.070 |ddv_scf|^2 =  7.275E-17

     End of self-consistent calculation

     Convergence has been achieved 

     Number of q in the star =   24
     List of q in the star:
          1   0.530330086  -0.530330086  -0.176776695
          2  -0.530330086   0.530330086  -0.176776695
          3  -0.530330086  -0.530330086  -0.176776695
          4   0.530330086   0.530330086  -0.176776695
          5  -0.530330086   0.176776695   0.530330086
          6  -0.176776695   0.530330086   0.530330086
          7   0.530330086   0.530330086   0.176776695
          8  -0.530330086  -0.530330086   0.176776695
          9   0.176776695  -0.530330086  -0.530330086
         10  -0.530330086  -0.176776695   0.530330086
         11   0.530330086  -0.530330086   0.176776695
         12  -0.530330086   0.176776695  -0.530330086
         13   0.530330086   0.176776695   0.530330086
         14  -0.176776695   0.530330086  -0.530330086
         15  -0.176776695  -0.530330086   0.530330086
         16   0.176776695   0.530330086   0.530330086
         17   0.530330086  -0.176776695  -0.530330086
         18  -0.530330086  -0.176776695  -0.530330086
         19   0.530330086  -0.176776695   0.530330086
         20  -0.530330086   0.530330086   0.176776695
         21   0.176776695   0.530330086  -0.530330086
         22   0.530330086   0.176776695  -0.530330086
         23  -0.176776695  -0.530330086  -0.530330086
         24   0.176776695  -0.530330086   0.530330086

     Diagonalizing the dynamical matrix

     q = (    0.530330086  -0.530330086  -0.176776695 ) 

 **************************************************************************
     freq (    1) =       5.060970 [THz] =     168.815784 [cm-1]
     freq (    2) =       6.421778 [THz] =     214.207472 [cm-1]
     freq (    3) =       8.520971 [THz] =     284.229003 [cm-1]
 **************************************************************************

     Mode symmetry, C_s (m)     point group:

     freq (   1-   1) =        168.8  [cm-1]   --> A''                
     freq (   2-   2) =        214.2  [cm-1]   --> A'                 
     freq (   3-   3) =        284.2  [cm-1]   --> A'                 

     Calculation of q =    0.3535534  -0.3535534   0.0000000

     G-vector sticks info
     --------------------
     sticks:   dense  smooth     PW     G-vecs:    dense   smooth      PW
     Sum         475     241    109                 6879     2445     701

     Using Slab Decomposition


     Title: 
     phonons of Al mesh                                                         


     bravais-lattice index     =            0
     lattice parameter (alat)  =       5.3943  a.u.
     unit-cell volume          =     110.9892 (a.u.)^3
     number of atoms/cell      =            1
     number of atomic types    =            1
     number of electrons       =         3.00
     number of Kohn-Sham states=            6
     kinetic-energy cutoff     =      30.0000  Ry
     charge density cutoff     =     240.0000  Ry
     Exchange-correlation= PBE
                           (   1   4   3   4   0   0   0)

     celldm(1)=   5.394260  celldm(2)=   0.000000  celldm(3)=   0.000000
     celldm(4)=   0.000000  celldm(5)=   0.000000  celldm(6)=   0.000000

     crystal axes: (cart. coord. in units of alat)
               a(1) = (   0.707107   0.707107   0.000000 )  
               a(2) = (   0.707107   0.000000   0.707107 )  
               a(3) = (   0.000000   0.707107   0.707107 )  

     reciprocal axes: (cart. coord. in units 2 pi/alat)
               b(1) = (  0.707107  0.707107 -0.707107 )  
               b(2) = (  0.707107 -0.707107  0.707107 )  
               b(3) = ( -0.707107  0.707107  0.707107 )  


     PseudoPot. # 1 for Al read from file:
     ./pseudo/Al.pbe-n-kjpaw_psl.1.0.0.UPF
     MD5 check sum: cfc449ca30b5f3223ec38ddd88ac046d
     Pseudo is Projector augmented-wave + core cor, Zval =  3.0
     Generated using "atomic" code by A. Dal Corso  v.5.1
     Shape of augmentation charge: PSQ
     Using radial grid of 1135 points,  6 beta functions with: 
                l(1) =   0
                l(2) =   0
                l(3) =   1
                l(4) =   1
                l(5) =   2
                l(6) =   2
     Q(r) pseudized with 0 coefficients 


     atomic species   valence    mass     pseudopotential
        Al             3.00    26.98154     Al( 1.00)

     48 Sym. Ops., with inversion, found



   Cartesian axes

     site n.     atom                  positions (alat units)
         1           Al  tau(   1) = (   0.0000000   0.0000000   0.0000000  )

     number of k points=  1582  Marzari-Vanderbilt smearing, width (Ry)=  0.0147

     Number of k-points >= 100: set verbosity='high' to print them.

     Dense  grid:     6879 G-vectors     FFT dimensions: (  27,  27,  27)

     Smooth grid:     2445 G-vectors     FFT dimensions: (  20,  20,  20)

     Estimated max dynamical RAM per process >      23.28 MB

     The potential is recalculated from file :
     ./_ph0/al.save/charge-density

     Starting wfcs are    4 atomic +    2 random wfcs
     Checking if some PAW data can be deallocated... 

     Band Structure Calculation
     Davidson diagonalization with overlap

     ethr =  3.33E-10,  avg # of iterations = 16.1

     total cpu time spent up to now is       85.8 secs

     End of band structure calculation

     Number of k-points >= 100: set verbosity='high' to print the bands.

     the Fermi energy is     7.9152 ev

     Writing output data file ./_ph0/al.save/

     phonons of Al mesh                                                         

     bravais-lattice index     =            0
     lattice parameter (alat)  =       5.3943  a.u.
     unit-cell volume          =     110.9892 (a.u.)^3
     number of atoms/cell      =            1
     number of atomic types    =            1
     kinetic-energy cut-off    =      30.0000  Ry
     charge density cut-off    =     240.0000  Ry
     convergence threshold     =      1.0E-16
     beta                      =       0.0700
     number of iterations used =            4
     Exchange-correlation= PBE
                           (   1   4   3   4   0   0   0)


     celldm(1)=    5.39426  celldm(2)=    0.00000  celldm(3)=    0.00000
     celldm(4)=    0.00000  celldm(5)=    0.00000  celldm(6)=    0.00000

     crystal axes: (cart. coord. in units of alat)
               a(1) = (  0.7071  0.7071  0.0000 )  
               a(2) = (  0.7071  0.0000  0.7071 )  
               a(3) = (  0.0000  0.7071  0.7071 )  

     reciprocal axes: (cart. coord. in units 2 pi/alat)
               b(1) = (  0.7071  0.7071 -0.7071 )  
               b(2) = (  0.7071 -0.7071  0.7071 )  
               b(3) = ( -0.7071  0.7071  0.7071 )  


     Atoms inside the unit cell: 

     Cartesian axes

     site n.  atom      mass           positions (alat units)
        1     Al  26.9815   tau(    1) = (    0.00000    0.00000    0.00000  )

     Computing dynamical matrix for 
                    q = (   0.3535534  -0.3535534   0.0000000 )

      4 Sym.Ops. (no q -> -q+G )


     G cutoff =  176.8949  (   6879 G-vectors)     FFT grid: ( 27, 27, 27)
     G cutoff =   88.4475  (   2445 G-vectors)  smooth grid: ( 20, 20, 20)

     number of k points=  1582  Marzari-Vanderbilt smearing, width (Ry)=  0.0147

     PseudoPot. # 1 for Al read from file:
     ./pseudo/Al.pbe-n-kjpaw_psl.1.0.0.UPF
     MD5 check sum: cfc449ca30b5f3223ec38ddd88ac046d
     Pseudo is Projector augmented-wave + core cor, Zval =  3.0
     Generated using "atomic" code by A. Dal Corso  v.5.1
     Shape of augmentation charge: PSQ
     Using radial grid of 1135 points,  6 beta functions with: 
                l(1) =   0
                l(2) =   0
                l(3) =   1
                l(4) =   1
                l(5) =   2
                l(6) =   2
     Q(r) pseudized with 0 coefficients 


     Mode symmetry, C_2v (mm2)  point group:


     Atomic displacements:
     There are    3 irreducible representations

     Representation     1      1 modes -  To be done

     Representation     2      1 modes -  To be done

     Representation     3      1 modes -  To be done



     Alpha used in Ewald sum =   2.7000
     PHONON       :   7m 4.45s CPU   7m22.27s WALL



     Representation #   1 mode #   1

     Self-consistent Calculation

      iter #   1 total cpu time :   444.6 secs   av.it.:   4.7
      thresh= 1.000E-02 alpha_mix =  0.070 |ddv_scf|^2 =  9.739E-05

      iter #   2 total cpu time :   446.5 secs   av.it.:   4.9
      thresh= 9.869E-04 alpha_mix =  0.070 |ddv_scf|^2 =  4.944E-05

      iter #   3 total cpu time :   448.6 secs   av.it.:   5.7
      thresh= 7.031E-04 alpha_mix =  0.070 |ddv_scf|^2 =  1.846E-07

      iter #   4 total cpu time :   450.7 secs   av.it.:   6.1
      thresh= 4.296E-05 alpha_mix =  0.070 |ddv_scf|^2 =  1.122E-07

      iter #   5 total cpu time :   452.9 secs   av.it.:   6.8
      thresh= 3.350E-05 alpha_mix =  0.070 |ddv_scf|^2 =  1.229E-08

      iter #   6 total cpu time :   455.1 secs   av.it.:   6.7
      thresh= 1.109E-05 alpha_mix =  0.070 |ddv_scf|^2 =  5.414E-10

      iter #   7 total cpu time :   457.3 secs   av.it.:   6.7
      thresh= 2.327E-06 alpha_mix =  0.070 |ddv_scf|^2 =  1.660E-10

      iter #   8 total cpu time :   459.4 secs   av.it.:   6.2
      thresh= 1.289E-06 alpha_mix =  0.070 |ddv_scf|^2 =  1.276E-12

      iter #   9 total cpu time :   461.5 secs   av.it.:   6.5
      thresh= 1.130E-07 alpha_mix =  0.070 |ddv_scf|^2 =  1.747E-13

      iter #  10 total cpu time :   463.8 secs   av.it.:   6.9
      thresh= 4.180E-08 alpha_mix =  0.070 |ddv_scf|^2 =  7.906E-15

      iter #  11 total cpu time :   466.0 secs   av.it.:   7.0
      thresh= 8.892E-09 alpha_mix =  0.070 |ddv_scf|^2 =  1.805E-15

      iter #  12 total cpu time :   468.3 secs   av.it.:   6.8
      thresh= 4.249E-09 alpha_mix =  0.070 |ddv_scf|^2 =  7.992E-17

     End of self-consistent calculation

     Convergence has been achieved 


     Representation #   2 mode #   2

     Self-consistent Calculation

      iter #   1 total cpu time :   470.9 secs   av.it.:   4.4
      thresh= 1.000E-02 alpha_mix =  0.070 |ddv_scf|^2 =  6.763E-07

      iter #   2 total cpu time :   473.3 secs   av.it.:   5.6
      thresh= 8.224E-05 alpha_mix =  0.070 |ddv_scf|^2 =  5.441E-07

      iter #   3 total cpu time :   475.6 secs   av.it.:   6.7
      thresh= 7.376E-05 alpha_mix =  0.070 |ddv_scf|^2 =  3.563E-08

      iter #   4 total cpu time :   477.7 secs   av.it.:   5.7
      thresh= 1.888E-05 alpha_mix =  0.070 |ddv_scf|^2 =  2.749E-08

      iter #   5 total cpu time :   479.9 secs   av.it.:   6.6
      thresh= 1.658E-05 alpha_mix =  0.070 |ddv_scf|^2 =  3.701E-10

      iter #   6 total cpu time :   481.8 secs   av.it.:   5.1
      thresh= 1.924E-06 alpha_mix =  0.070 |ddv_scf|^2 =  2.637E-10

      iter #   7 total cpu time :   484.0 secs   av.it.:   6.3
      thresh= 1.624E-06 alpha_mix =  0.070 |ddv_scf|^2 =  4.033E-13

      iter #   8 total cpu time :   486.0 secs   av.it.:   5.5
      thresh= 6.350E-08 alpha_mix =  0.070 |ddv_scf|^2 =  3.075E-13

      iter #   9 total cpu time :   488.2 secs   av.it.:   6.5
      thresh= 5.545E-08 alpha_mix =  0.070 |ddv_scf|^2 =  1.679E-16

      iter #  10 total cpu time :   490.3 secs   av.it.:   5.8
      thresh= 1.296E-09 alpha_mix =  0.070 |ddv_scf|^2 =  1.390E-16

      iter #  11 total cpu time :   492.4 secs   av.it.:   6.4
      thresh= 1.179E-09 alpha_mix =  0.070 |ddv_scf|^2 =  2.872E-17

     End of self-consistent calculation

     Convergence has been achieved 


     Representation #   3 mode #   3

     Self-consistent Calculation

      iter #   1 total cpu time :   495.0 secs   av.it.:   3.8
      thresh= 1.000E-02 alpha_mix =  0.070 |ddv_scf|^2 =  2.589E-07

      iter #   2 total cpu time :   497.0 secs   av.it.:   5.5
      thresh= 5.089E-05 alpha_mix =  0.070 |ddv_scf|^2 =  2.212E-07

      iter #   3 total cpu time :   499.2 secs   av.it.:   6.4
      thresh= 4.703E-05 alpha_mix =  0.070 |ddv_scf|^2 =  2.656E-09

      iter #   4 total cpu time :   501.4 secs   av.it.:   6.2
      thresh= 5.153E-06 alpha_mix =  0.070 |ddv_scf|^2 =  1.689E-09

      iter #   5 total cpu time :   503.9 secs   av.it.:   6.5
      thresh= 4.110E-06 alpha_mix =  0.070 |ddv_scf|^2 =  3.008E-11

      iter #   6 total cpu time :   506.1 secs   av.it.:   5.0
      thresh= 5.485E-07 alpha_mix =  0.070 |ddv_scf|^2 =  2.379E-11

      iter #   7 total cpu time :   508.6 secs   av.it.:   6.6
      thresh= 4.878E-07 alpha_mix =  0.070 |ddv_scf|^2 =  6.228E-14

      iter #   8 total cpu time :   510.6 secs   av.it.:   5.0
      thresh= 2.496E-08 alpha_mix =  0.070 |ddv_scf|^2 =  5.152E-14

      iter #   9 total cpu time :   512.7 secs   av.it.:   6.3
      thresh= 2.270E-08 alpha_mix =  0.070 |ddv_scf|^2 =  3.416E-17

     End of self-consistent calculation

     Convergence has been achieved 

     Number of q in the star =   12
     List of q in the star:
          1   0.353553391  -0.353553391   0.000000000
          2  -0.353553391  -0.353553391   0.000000000
          3   0.353553391   0.353553391   0.000000000
          4  -0.353553391   0.353553391   0.000000000
          5  -0.353553391   0.000000000   0.353553391
          6   0.000000000   0.353553391   0.353553391
          7   0.000000000  -0.353553391  -0.353553391
          8  -0.353553391   0.000000000  -0.353553391
          9   0.353553391   0.000000000   0.353553391
         10   0.000000000   0.353553391  -0.353553391
         11   0.000000000  -0.353553391   0.353553391
         12   0.353553391   0.000000000  -0.353553391

     Diagonalizing the dynamical matrix

     q = (    0.353553391  -0.353553391   0.000000000 ) 

 **************************************************************************
     freq (    1) =       4.639443 [THz] =     154.755169 [cm-1]
     freq (    2) =       6.426856 [THz] =     214.376830 [cm-1]
     freq (    3) =       8.428629 [THz] =     281.148812 [cm-1]
 **************************************************************************

     Mode symmetry, C_2v (mm2)  point group:

     freq (   1-   1) =        154.8  [cm-1]   --> B_2  D_4  S_4      
     freq (   2-   2) =        214.4  [cm-1]   --> B_1  D_3  S_3      
     freq (   3-   3) =        281.1  [cm-1]   --> A_1  D_1  S_1      

     Calculation of q =    0.0000000   0.0000000  -0.7071068

     G-vector sticks info
     --------------------
     sticks:   dense  smooth     PW     G-vecs:    dense   smooth      PW
     Sum         475     241    109                 6879     2445     725

     Using Slab Decomposition


     Title: 
     phonons of Al mesh                                                         


     bravais-lattice index     =            0
     lattice parameter (alat)  =       5.3943  a.u.
     unit-cell volume          =     110.9892 (a.u.)^3
     number of atoms/cell      =            1
     number of atomic types    =            1
     number of electrons       =         3.00
     number of Kohn-Sham states=            6
     kinetic-energy cutoff     =      30.0000  Ry
     charge density cutoff     =     240.0000  Ry
     Exchange-correlation= PBE
                           (   1   4   3   4   0   0   0)

     celldm(1)=   5.394260  celldm(2)=   0.000000  celldm(3)=   0.000000
     celldm(4)=   0.000000  celldm(5)=   0.000000  celldm(6)=   0.000000

     crystal axes: (cart. coord. in units of alat)
               a(1) = (   0.707107   0.707107   0.000000 )  
               a(2) = (   0.707107   0.000000   0.707107 )  
               a(3) = (   0.000000   0.707107   0.707107 )  

     reciprocal axes: (cart. coord. in units 2 pi/alat)
               b(1) = (  0.707107  0.707107 -0.707107 )  
               b(2) = (  0.707107 -0.707107  0.707107 )  
               b(3) = ( -0.707107  0.707107  0.707107 )  


     PseudoPot. # 1 for Al read from file:
     ./pseudo/Al.pbe-n-kjpaw_psl.1.0.0.UPF
     MD5 check sum: cfc449ca30b5f3223ec38ddd88ac046d
     Pseudo is Projector augmented-wave + core cor, Zval =  3.0
     Generated using "atomic" code by A. Dal Corso  v.5.1
     Shape of augmentation charge: PSQ
     Using radial grid of 1135 points,  6 beta functions with: 
                l(1) =   0
                l(2) =   0
                l(3) =   1
                l(4) =   1
                l(5) =   2
                l(6) =   2
     Q(r) pseudized with 0 coefficients 


     atomic species   valence    mass     pseudopotential
        Al             3.00    26.98154     Al( 1.00)

     48 Sym. Ops., with inversion, found



   Cartesian axes

     site n.     atom                  positions (alat units)
         1           Al  tau(   1) = (   0.0000000   0.0000000   0.0000000  )

     number of k points=   488  Marzari-Vanderbilt smearing, width (Ry)=  0.0147

     Number of k-points >= 100: set verbosity='high' to print them.

     Dense  grid:     6879 G-vectors     FFT dimensions: (  27,  27,  27)

     Smooth grid:     2445 G-vectors     FFT dimensions: (  20,  20,  20)

     Estimated max dynamical RAM per process >      23.30 MB

     The potential is recalculated from file :
     ./_ph0/al.save/charge-density

     Starting wfcs are    4 atomic +    2 random wfcs
     Checking if some PAW data can be deallocated... 

     Band Structure Calculation
     Davidson diagonalization with overlap

     ethr =  3.33E-10,  avg # of iterations = 15.8

     total cpu time spent up to now is       91.9 secs

     End of band structure calculation

     Number of k-points >= 100: set verbosity='high' to print the bands.

     the Fermi energy is     7.9152 ev

     Writing output data file ./_ph0/al.save/

     phonons of Al mesh                                                         

     bravais-lattice index     =            0
     lattice parameter (alat)  =       5.3943  a.u.
     unit-cell volume          =     110.9892 (a.u.)^3
     number of atoms/cell      =            1
     number of atomic types    =            1
     kinetic-energy cut-off    =      30.0000  Ry
     charge density cut-off    =     240.0000  Ry
     convergence threshold     =      1.0E-16
     beta                      =       0.0700
     number of iterations used =            4
     Exchange-correlation= PBE
                           (   1   4   3   4   0   0   0)


     celldm(1)=    5.39426  celldm(2)=    0.00000  celldm(3)=    0.00000
     celldm(4)=    0.00000  celldm(5)=    0.00000  celldm(6)=    0.00000

     crystal axes: (cart. coord. in units of alat)
               a(1) = (  0.7071  0.7071  0.0000 )  
               a(2) = (  0.7071  0.0000  0.7071 )  
               a(3) = (  0.0000  0.7071  0.7071 )  

     reciprocal axes: (cart. coord. in units 2 pi/alat)
               b(1) = (  0.7071  0.7071 -0.7071 )  
               b(2) = (  0.7071 -0.7071  0.7071 )  
               b(3) = ( -0.7071  0.7071  0.7071 )  


     Atoms inside the unit cell: 

     Cartesian axes

     site n.  atom      mass           positions (alat units)
        1     Al  26.9815   tau(    1) = (    0.00000    0.00000    0.00000  )

     Computing dynamical matrix for 
                    q = (   0.0000000   0.0000000  -0.7071068 )

     17 Sym.Ops. (with q -> -q+G )


     G cutoff =  176.8949  (   6879 G-vectors)     FFT grid: ( 27, 27, 27)
     G cutoff =   88.4475  (   2445 G-vectors)  smooth grid: ( 20, 20, 20)

     number of k points=   488  Marzari-Vanderbilt smearing, width (Ry)=  0.0147

     PseudoPot. # 1 for Al read from file:
     ./pseudo/Al.pbe-n-kjpaw_psl.1.0.0.UPF
     MD5 check sum: cfc449ca30b5f3223ec38ddd88ac046d
     Pseudo is Projector augmented-wave + core cor, Zval =  3.0
     Generated using "atomic" code by A. Dal Corso  v.5.1
     Shape of augmentation charge: PSQ
     Using radial grid of 1135 points,  6 beta functions with: 
                l(1) =   0
                l(2) =   0
                l(3) =   1
                l(4) =   1
                l(5) =   2
                l(6) =   2
     Q(r) pseudized with 0 coefficients 


     Mode symmetry, D_4h(4/mmm) point group:


     Atomic displacements:
     There are    2 irreducible representations

     Representation     1      1 modes -  To be done

     Representation     2      2 modes -  To be done



     Alpha used in Ewald sum =   2.7000
     PHONON       :   8m18.70s CPU   8m40.10s WALL



     Representation #   1 mode #   1

     Self-consistent Calculation

      iter #   1 total cpu time :   521.3 secs   av.it.:   4.6
      thresh= 1.000E-02 alpha_mix =  0.070 |ddv_scf|^2 =  9.374E-06

      iter #   2 total cpu time :   522.3 secs   av.it.:   5.1
      thresh= 3.062E-04 alpha_mix =  0.070 |ddv_scf|^2 =  6.576E-06

      iter #   3 total cpu time :   523.5 secs   av.it.:   6.2
      thresh= 2.564E-04 alpha_mix =  0.070 |ddv_scf|^2 =  7.139E-08

      iter #   4 total cpu time :   524.6 secs   av.it.:   5.5
      thresh= 2.672E-05 alpha_mix =  0.070 |ddv_scf|^2 =  3.671E-08

      iter #   5 total cpu time :   525.7 secs   av.it.:   6.3
      thresh= 1.916E-05 alpha_mix =  0.070 |ddv_scf|^2 =  6.248E-10

      iter #   6 total cpu time :   526.7 secs   av.it.:   5.0
      thresh= 2.500E-06 alpha_mix =  0.070 |ddv_scf|^2 =  2.563E-10

      iter #   7 total cpu time :   527.7 secs   av.it.:   5.3
      thresh= 1.601E-06 alpha_mix =  0.070 |ddv_scf|^2 =  3.898E-14

      iter #   8 total cpu time :   528.7 secs   av.it.:   5.3
      thresh= 1.974E-08 alpha_mix =  0.070 |ddv_scf|^2 =  3.390E-14

      iter #   9 total cpu time :   529.7 secs   av.it.:   6.0
      thresh= 1.841E-08 alpha_mix =  0.070 |ddv_scf|^2 =  1.361E-16

      iter #  10 total cpu time :   530.8 secs   av.it.:   6.3
      thresh= 1.167E-09 alpha_mix =  0.070 |ddv_scf|^2 =  4.684E-18

     End of self-consistent calculation

     Convergence has been achieved 


     Representation #   2 modes #   2   3

     Self-consistent Calculation

      iter #   1 total cpu time :   533.0 secs   av.it.:   4.1
      thresh= 1.000E-02 alpha_mix =  0.070 |ddv_scf|^2 =  5.691E-08

      iter #   2 total cpu time :   535.1 secs   av.it.:   6.1
      thresh= 2.386E-05 alpha_mix =  0.070 |ddv_scf|^2 =  4.876E-08

      iter #   3 total cpu time :   537.2 secs   av.it.:   7.0
      thresh= 2.208E-05 alpha_mix =  0.070 |ddv_scf|^2 =  1.809E-09

      iter #   4 total cpu time :   539.1 secs   av.it.:   5.4
      thresh= 4.253E-06 alpha_mix =  0.070 |ddv_scf|^2 =  1.525E-09

      iter #   5 total cpu time :   541.3 secs   av.it.:   7.1
      thresh= 3.905E-06 alpha_mix =  0.070 |ddv_scf|^2 =  4.295E-11

      iter #   6 total cpu time :   543.3 secs   av.it.:   5.8
      thresh= 6.554E-07 alpha_mix =  0.070 |ddv_scf|^2 =  2.963E-11

      iter #   7 total cpu time :   545.3 secs   av.it.:   6.9
      thresh= 5.444E-07 alpha_mix =  0.070 |ddv_scf|^2 =  3.393E-15

      iter #   8 total cpu time :   547.3 secs   av.it.:   5.3
      thresh= 5.825E-09 alpha_mix =  0.070 |ddv_scf|^2 =  2.923E-15

      iter #   9 total cpu time :   549.4 secs   av.it.:   6.6
      thresh= 5.407E-09 alpha_mix =  0.070 |ddv_scf|^2 =  7.577E-19

     End of self-consistent calculation

     Convergence has been achieved 

     Number of q in the star =    3
     List of q in the star:
          1   0.000000000   0.000000000  -0.707106781
          2   0.000000000  -0.707106781   0.000000000
          3  -0.707106781   0.000000000   0.000000000

     Diagonalizing the dynamical matrix

     q = (    0.000000000   0.000000000  -0.707106781 ) 

 **************************************************************************
     freq (    1) =       5.528131 [THz] =     184.398590 [cm-1]
     freq (    2) =       5.528131 [THz] =     184.398590 [cm-1]
     freq (    3) =       9.484314 [THz] =     316.362669 [cm-1]
 **************************************************************************

     Mode symmetry, D_4h(4/mmm) point group:

     freq (   1-   2) =        184.4  [cm-1]   --> E_u  X_5' M_5'     
     freq (   3-   3) =        316.4  [cm-1]   --> A_2u X_4' M_4'     

     Calculation of q =    0.0000000   0.3535534  -0.7071068

     G-vector sticks info
     --------------------
     sticks:   dense  smooth     PW     G-vecs:    dense   smooth      PW
     Sum         475     241    109                 6879     2445     725

     Using Slab Decomposition


     Title: 
     phonons of Al mesh                                                         


     bravais-lattice index     =            0
     lattice parameter (alat)  =       5.3943  a.u.
     unit-cell volume          =     110.9892 (a.u.)^3
     number of atoms/cell      =            1
     number of atomic types    =            1
     number of electrons       =         3.00
     number of Kohn-Sham states=            6
     kinetic-energy cutoff     =      30.0000  Ry
     charge density cutoff     =     240.0000  Ry
     Exchange-correlation= PBE
                           (   1   4   3   4   0   0   0)

     celldm(1)=   5.394260  celldm(2)=   0.000000  celldm(3)=   0.000000
     celldm(4)=   0.000000  celldm(5)=   0.000000  celldm(6)=   0.000000

     crystal axes: (cart. coord. in units of alat)
               a(1) = (   0.707107   0.707107   0.000000 )  
               a(2) = (   0.707107   0.000000   0.707107 )  
               a(3) = (   0.000000   0.707107   0.707107 )  

     reciprocal axes: (cart. coord. in units 2 pi/alat)
               b(1) = (  0.707107  0.707107 -0.707107 )  
               b(2) = (  0.707107 -0.707107  0.707107 )  
               b(3) = ( -0.707107  0.707107  0.707107 )  


     PseudoPot. # 1 for Al read from file:
     ./pseudo/Al.pbe-n-kjpaw_psl.1.0.0.UPF
     MD5 check sum: cfc449ca30b5f3223ec38ddd88ac046d
     Pseudo is Projector augmented-wave + core cor, Zval =  3.0
     Generated using "atomic" code by A. Dal Corso  v.5.1
     Shape of augmentation charge: PSQ
     Using radial grid of 1135 points,  6 beta functions with: 
                l(1) =   0
                l(2) =   0
                l(3) =   1
                l(4) =   1
                l(5) =   2
                l(6) =   2
     Q(r) pseudized with 0 coefficients 


     atomic species   valence    mass     pseudopotential
        Al             3.00    26.98154     Al( 1.00)

     48 Sym. Ops., with inversion, found



   Cartesian axes

     site n.     atom                  positions (alat units)
         1           Al  tau(   1) = (   0.0000000   0.0000000   0.0000000  )

     number of k points=   806  Marzari-Vanderbilt smearing, width (Ry)=  0.0147

     Number of k-points >= 100: set verbosity='high' to print them.

     Dense  grid:     6879 G-vectors     FFT dimensions: (  27,  27,  27)

     Smooth grid:     2445 G-vectors     FFT dimensions: (  20,  20,  20)

     Estimated max dynamical RAM per process >      23.30 MB

     The potential is recalculated from file :
     ./_ph0/al.save/charge-density

     Starting wfcs are    4 atomic +    2 random wfcs
     Checking if some PAW data can be deallocated... 

     Band Structure Calculation
     Davidson diagonalization with overlap

     ethr =  3.33E-10,  avg # of iterations = 15.9

     total cpu time spent up to now is      102.4 secs

     End of band structure calculation

     Number of k-points >= 100: set verbosity='high' to print the bands.

     the Fermi energy is     7.9152 ev

     Writing output data file ./_ph0/al.save/

     phonons of Al mesh                                                         

     bravais-lattice index     =            0
     lattice parameter (alat)  =       5.3943  a.u.
     unit-cell volume          =     110.9892 (a.u.)^3
     number of atoms/cell      =            1
     number of atomic types    =            1
     kinetic-energy cut-off    =      30.0000  Ry
     charge density cut-off    =     240.0000  Ry
     convergence threshold     =      1.0E-16
     beta                      =       0.0700
     number of iterations used =            4
     Exchange-correlation= PBE
                           (   1   4   3   4   0   0   0)


     celldm(1)=    5.39426  celldm(2)=    0.00000  celldm(3)=    0.00000
     celldm(4)=    0.00000  celldm(5)=    0.00000  celldm(6)=    0.00000

     crystal axes: (cart. coord. in units of alat)
               a(1) = (  0.7071  0.7071  0.0000 )  
               a(2) = (  0.7071  0.0000  0.7071 )  
               a(3) = (  0.0000  0.7071  0.7071 )  

     reciprocal axes: (cart. coord. in units 2 pi/alat)
               b(1) = (  0.7071  0.7071 -0.7071 )  
               b(2) = (  0.7071 -0.7071  0.7071 )  
               b(3) = ( -0.7071  0.7071  0.7071 )  


     Atoms inside the unit cell: 

     Cartesian axes

     site n.  atom      mass           positions (alat units)
        1     Al  26.9815   tau(    1) = (    0.00000    0.00000    0.00000  )

     Computing dynamical matrix for 
                    q = (   0.0000000   0.3535534  -0.7071068 )

      8 Sym.Ops. (no q -> -q+G )


     G cutoff =  176.8949  (   6879 G-vectors)     FFT grid: ( 27, 27, 27)
     G cutoff =   88.4475  (   2445 G-vectors)  smooth grid: ( 20, 20, 20)

     number of k points=   806  Marzari-Vanderbilt smearing, width (Ry)=  0.0147

     PseudoPot. # 1 for Al read from file:
     ./pseudo/Al.pbe-n-kjpaw_psl.1.0.0.UPF
     MD5 check sum: cfc449ca30b5f3223ec38ddd88ac046d
     Pseudo is Projector augmented-wave + core cor, Zval =  3.0
     Generated using "atomic" code by A. Dal Corso  v.5.1
     Shape of augmentation charge: PSQ
     Using radial grid of 1135 points,  6 beta functions with: 
                l(1) =   0
                l(2) =   0
                l(3) =   1
                l(4) =   1
                l(5) =   2
                l(6) =   2
     Q(r) pseudized with 0 coefficients 


     Mode symmetry, D_2d (-42m) point group:


     Atomic displacements:
     There are    2 irreducible representations

     Representation     1      1 modes -  To be done

     Representation     2      2 modes -  To be done



     Alpha used in Ewald sum =   2.7000
     PHONON       :   8m59.01s CPU   9m21.67s WALL



     Representation #   1 mode #   1

     Self-consistent Calculation

      iter #   1 total cpu time :   563.3 secs   av.it.:   4.7
      thresh= 1.000E-02 alpha_mix =  0.070 |ddv_scf|^2 =  1.126E-06

      iter #   2 total cpu time :   564.9 secs   av.it.:   5.6
      thresh= 1.061E-04 alpha_mix =  0.070 |ddv_scf|^2 =  8.717E-07

      iter #   3 total cpu time :   566.3 secs   av.it.:   6.8
      thresh= 9.337E-05 alpha_mix =  0.070 |ddv_scf|^2 =  4.652E-08

      iter #   4 total cpu time :   567.6 secs   av.it.:   6.3
      thresh= 2.157E-05 alpha_mix =  0.070 |ddv_scf|^2 =  1.902E-08

      iter #   5 total cpu time :   569.0 secs   av.it.:   6.7
      thresh= 1.379E-05 alpha_mix =  0.070 |ddv_scf|^2 =  4.072E-10

      iter #   6 total cpu time :   570.4 secs   av.it.:   6.0
      thresh= 2.018E-06 alpha_mix =  0.070 |ddv_scf|^2 =  1.813E-10

      iter #   7 total cpu time :   571.8 secs   av.it.:   6.5
      thresh= 1.347E-06 alpha_mix =  0.070 |ddv_scf|^2 =  5.212E-13

      iter #   8 total cpu time :   573.1 secs   av.it.:   5.7
      thresh= 7.219E-08 alpha_mix =  0.070 |ddv_scf|^2 =  3.766E-13

      iter #   9 total cpu time :   574.6 secs   av.it.:   6.7
      thresh= 6.137E-08 alpha_mix =  0.070 |ddv_scf|^2 =  1.747E-16

      iter #  10 total cpu time :   575.9 secs   av.it.:   6.1
      thresh= 1.322E-09 alpha_mix =  0.070 |ddv_scf|^2 =  1.470E-16

      iter #  11 total cpu time :   577.2 secs   av.it.:   5.8
      thresh= 1.212E-09 alpha_mix =  0.070 |ddv_scf|^2 =  5.206E-17

     End of self-consistent calculation

     Convergence has been achieved 


     Representation #   2 modes #   2   3

     Self-consistent Calculation

      iter #   1 total cpu time :   580.3 secs   av.it.:   4.8
      thresh= 1.000E-02 alpha_mix =  0.070 |ddv_scf|^2 =  5.805E-07

      iter #   2 total cpu time :   583.2 secs   av.it.:   6.2
      thresh= 7.619E-05 alpha_mix =  0.070 |ddv_scf|^2 =  4.356E-07

      iter #   3 total cpu time :   586.2 secs   av.it.:   7.2
      thresh= 6.600E-05 alpha_mix =  0.070 |ddv_scf|^2 =  1.329E-08

      iter #   4 total cpu time :   589.1 secs   av.it.:   6.8
      thresh= 1.153E-05 alpha_mix =  0.070 |ddv_scf|^2 =  5.203E-09

      iter #   5 total cpu time :   592.2 secs   av.it.:   7.3
      thresh= 7.213E-06 alpha_mix =  0.070 |ddv_scf|^2 =  1.191E-10

      iter #   6 total cpu time :   595.1 secs   av.it.:   6.4
      thresh= 1.091E-06 alpha_mix =  0.070 |ddv_scf|^2 =  4.892E-11

      iter #   7 total cpu time :   598.0 secs   av.it.:   6.8
      thresh= 6.995E-07 alpha_mix =  0.070 |ddv_scf|^2 =  1.719E-13

      iter #   8 total cpu time :   600.9 secs   av.it.:   6.4
      thresh= 4.146E-08 alpha_mix =  0.070 |ddv_scf|^2 =  1.193E-13

      iter #   9 total cpu time :   603.7 secs   av.it.:   7.4
      thresh= 3.454E-08 alpha_mix =  0.070 |ddv_scf|^2 =  1.266E-16

      iter #  10 total cpu time :   606.3 secs   av.it.:   6.2
      thresh= 1.125E-09 alpha_mix =  0.070 |ddv_scf|^2 =  1.059E-16

      iter #  11 total cpu time :   609.1 secs   av.it.:   7.0
      thresh= 1.029E-09 alpha_mix =  0.070 |ddv_scf|^2 =  3.597E-17

     End of self-consistent calculation

     Convergence has been achieved 

     Number of q in the star =    6
     List of q in the star:
          1   0.000000000   0.353553391  -0.707106781
          2   0.000000000  -0.353553391   0.707106781
          3  -0.353553391   0.000000000   0.707106781
          4   0.353553391   0.000000000   0.707106781
          5  -0.707106781   0.000000000   0.353553391
          6  -0.707106781   0.000000000  -0.353553391

     Diagonalizing the dynamical matrix

     q = (    0.000000000   0.353553391  -0.707106781 ) 

 **************************************************************************
     freq (    1) =       6.432111 [THz] =     214.552122 [cm-1]
     freq (    2) =       7.800922 [THz] =     260.210758 [cm-1]
     freq (    3) =       7.800922 [THz] =     260.210758 [cm-1]
 **************************************************************************

     Mode symmetry, D_2d (-42m) point group:

     freq (   1-   1) =        214.6  [cm-1]   --> B_2  X_3  W_2      
     freq (   2-   3) =        260.2  [cm-1]   --> E    X_5  W_3      

     init_run     :      2.81s CPU      2.82s WALL (       7 calls)
     electrons    :     96.84s CPU     99.15s WALL (       7 calls)

     Called by init_run:
     wfcinit      :      0.00s CPU      0.00s WALL (       7 calls)
     potinit      :      0.78s CPU      0.79s WALL (       7 calls)
     hinit0       :      1.69s CPU      1.69s WALL (       7 calls)

     Called by electrons:
     c_bands      :     96.79s CPU     99.10s WALL (       7 calls)
     v_of_rho     :      0.06s CPU      0.06s WALL (       8 calls)
     newd         :      0.09s CPU      0.09s WALL (       8 calls)
     PAW_pot      :      0.83s CPU      0.83s WALL (       8 calls)

     Called by c_bands:
     init_us_2    :     12.08s CPU     12.79s WALL (  181149 calls)
     cegterg      :     88.83s CPU     90.88s WALL (    9701 calls)

     Called by *egterg:
     cdiaghg      :     10.35s CPU     10.59s WALL (  143702 calls)
     h_psi        :    190.70s CPU    201.10s WALL ( 1241656 calls)
     s_psi        :     52.04s CPU     55.35s WALL ( 2494394 calls)
     g_psi        :      0.57s CPU      0.59s WALL (  135294 calls)

     Called by h_psi:
     h_psi:calbec :     21.52s CPU     22.71s WALL ( 1241656 calls)
     vloc_psi     :    141.21s CPU    148.85s WALL ( 1241656 calls)
     add_vuspsi   :     24.34s CPU     25.74s WALL ( 1241656 calls)

     General routines
     calbec       :     59.05s CPU     62.57s WALL ( 2783499 calls)
     fft          :      1.66s CPU      1.70s WALL (    4755 calls)
     ffts         :      0.38s CPU      0.40s WALL (   13722 calls)
     fftw         :    143.22s CPU    151.22s WALL ( 5810624 calls)
     interpolate  :      0.20s CPU      0.24s WALL (     560 calls)
     davcio       :      8.70s CPU      9.70s WALL (  819224 calls)

     Parallel routines

     PHONON       :   9m44.86s CPU  10m 9.32s WALL

     INITIALIZATION: 
     phq_setup    :      0.16s CPU      0.16s WALL (       8 calls)
     phq_init     :     13.85s CPU     14.09s WALL (       8 calls)

     phq_init     :     13.85s CPU     14.09s WALL (       8 calls)
     set_drhoc    :      1.37s CPU      1.37s WALL (      24 calls)
     init_vloc    :      0.01s CPU      0.01s WALL (       8 calls)
     init_us_1    :      1.79s CPU      1.80s WALL (       8 calls)
     newd         :      0.09s CPU      0.09s WALL (       8 calls)
     dvanqq       :      0.70s CPU      0.70s WALL (       8 calls)
     drho         :      7.90s CPU      8.07s WALL (       8 calls)

     DYNAMICAL MATRIX:
     dynmat0      :      3.12s CPU      3.17s WALL (       8 calls)
     phqscf       :    470.16s CPU    491.97s WALL (       8 calls)
     dynmatrix    :      0.00s CPU      0.00s WALL (       8 calls)

     phqscf       :    470.16s CPU    491.97s WALL (       8 calls)
     solve_linter :    465.68s CPU    487.37s WALL (      17 calls)
     drhodv       :      4.47s CPU      4.58s WALL (      17 calls)

     dynmat0      :      3.12s CPU      3.17s WALL (       8 calls)
     dynmat_us    :      2.14s CPU      2.18s WALL (       8 calls)
     d2ionq       :      0.01s CPU      0.01s WALL (       8 calls)
     dynmatcc     :      0.97s CPU      0.98s WALL (       8 calls)

     dynmat_us    :      2.14s CPU      2.18s WALL (       8 calls)
     addusdynmat  :      0.00s CPU      0.00s WALL (       8 calls)

     phqscf       :    470.16s CPU    491.97s WALL (       8 calls)
     solve_linter :    465.68s CPU    487.37s WALL (      17 calls)

     solve_linter :    465.68s CPU    487.37s WALL (      17 calls)
     dvqpsi_us    :     10.38s CPU     10.95s WALL (   12924 calls)
     ortho        :     21.28s CPU     22.72s WALL (  164485 calls)
     cgsolve      :    208.18s CPU    221.95s WALL (  164485 calls)
     incdrhoscf   :     28.28s CPU     30.12s WALL (  164485 calls)
     addusddens   :      5.95s CPU      5.96s WALL (     216 calls)
     vpsifft      :     16.65s CPU     17.77s WALL (  151561 calls)
     dv_of_drho   :      1.31s CPU      1.32s WALL (     260 calls)
     mix_pot      :      0.29s CPU      0.37s WALL (     199 calls)
     ef_shift     :      0.02s CPU      0.03s WALL (       8 calls)
     localdos     :      0.04s CPU      0.04s WALL (       1 calls)
     psymdvscf    :      1.24s CPU      1.25s WALL (     199 calls)
     newdq        :      6.05s CPU      6.06s WALL (     199 calls)
     adddvscf     :     10.45s CPU     11.20s WALL (  151561 calls)
     drhodvus     :      0.00s CPU      0.00s WALL (      17 calls)

     dvqpsi_us    :     10.38s CPU     10.95s WALL (   12924 calls)
     dvqpsi_us_on :      4.65s CPU      4.90s WALL (   12924 calls)

     cgsolve      :    208.18s CPU    221.95s WALL (  164485 calls)
     ch_psi       :    199.76s CPU    212.93s WALL ( 1088253 calls)

     ch_psi       :    199.76s CPU    212.93s WALL ( 1088253 calls)
     h_psi        :    190.70s CPU    201.10s WALL ( 1241656 calls)
     last         :     39.34s CPU     41.97s WALL ( 1088253 calls)

     h_psi        :    190.70s CPU    201.10s WALL ( 1241656 calls)
     add_vuspsi   :     24.34s CPU     25.74s WALL ( 1241656 calls)

     incdrhoscf   :     28.28s CPU     30.12s WALL (  164485 calls)
     addusdbec    :      9.81s CPU     10.43s WALL (  177409 calls)

     drhodvus     :      0.00s CPU      0.00s WALL (      17 calls)

      General routines
     calbec       :     59.05s CPU     62.57s WALL ( 2783499 calls)
     fft          :      1.66s CPU      1.70s WALL (    4755 calls)
     ffts         :      0.38s CPU      0.40s WALL (   13722 calls)
     fftw         :    143.22s CPU    151.22s WALL ( 5810624 calls)
     davcio       :      8.70s CPU      9.70s WALL (  819224 calls)
     write_rec    :      0.11s CPU      0.34s WALL (     216 calls)


     PHONON       :   9m44.86s CPU  10m 9.32s WALL


   This run was terminated on:  18:36:47  12May2023            

=------------------------------------------------------------------------------=
   JOB DONE.
=------------------------------------------------------------------------------=
