
     Program MATDYN v.6.8 starts on 13May2023 at 19:44: 2 

     This program is part of the open-source Quantum ESPRESSO suite
     for quantum simulation of materials; please cite
         "P. Giannozzi et al., J. Phys.:Condens. Matter 21 395502 (2009);
         "P. Giannozzi et al., J. Phys.:Condens. Matter 29 465901 (2017);
         "P. Giannozzi et al., J. Chem. Phys. 152 154105 (2020);
          URL http://www.quantum-espresso.org", 
     in publications or presentations arising from this work. More details at
     http://www.quantum-espresso.org/quote

     Parallel version (MPI), running on     1 processors

     MPI processes distributed on     1 nodes
     1183 MiB available memory on the printing compute node when the environment starts

 mass for atomic type   1 not given; uses mass from file aln.fc                                                                                                                                                                                                                                                          
 mass for atomic type   2 not given; uses mass from file aln.fc                                                                                                                                                                                                                                                          

     MATDYN       :   2m11.09s CPU   2m11.11s WALL


   This run was terminated on:  19:46:13  13May2023            

=------------------------------------------------------------------------------=
   JOB DONE.
=------------------------------------------------------------------------------=
