
     Program MATDYN v.6.8 starts on 12May2023 at 15:22: 2 

     This program is part of the open-source Quantum ESPRESSO suite
     for quantum simulation of materials; please cite
         "P. Giannozzi et al., J. Phys.:Condens. Matter 21 395502 (2009);
         "P. Giannozzi et al., J. Phys.:Condens. Matter 29 465901 (2017);
         "P. Giannozzi et al., J. Chem. Phys. 152 154105 (2020);
          URL http://www.quantum-espresso.org", 
     in publications or presentations arising from this work. More details at
     http://www.quantum-espresso.org/quote

     Parallel version (MPI), running on     1 processors

     MPI processes distributed on     1 nodes
     2558 MiB available memory on the printing compute node when the environment starts

     Message from routine volume:
     axis vectors are left-handed
     Message from routine volume:
     axis vectors are left-handed
 mass for atomic type   1 not given; uses mass from file si.fc                                                                                                                                                                                                                                                           

     MATDYN       :     58.56s CPU     58.57s WALL


   This run was terminated on:  15:23: 0  12May2023            

=------------------------------------------------------------------------------=
   JOB DONE.
=------------------------------------------------------------------------------=
