
     Program PHONON v.6.8 starts on 12May2023 at 12:41:31 

     This program is part of the open-source Quantum ESPRESSO suite
     for quantum simulation of materials; please cite
         "P. Giannozzi et al., J. Phys.:Condens. Matter 21 395502 (2009);
         "P. Giannozzi et al., J. Phys.:Condens. Matter 29 465901 (2017);
         "P. Giannozzi et al., J. Chem. Phys. 152 154105 (2020);
          URL http://www.quantum-espresso.org", 
     in publications or presentations arising from this work. More details at
     http://www.quantum-espresso.org/quote

     Parallel version (MPI), running on     1 processors

     MPI processes distributed on     1 nodes
     1585 MiB available memory on the printing compute node when the environment starts

     Waiting for input...
     Reading input from standard input

     Reading xml data from directory:

     ./si.save/
     Message from routine volume:
     axis vectors are left-handed

     IMPORTANT: XC functional enforced from input :
     Exchange-correlation= PBE
                           (   1   4   3   4   0   0   0)
     Any further DFT definition will be discarded
     Please, verify this is what you really want


     G-vector sticks info
     --------------------
     sticks:   dense  smooth     PW     G-vecs:    dense   smooth      PW
     Sum         877     439    151                17261     6183    1139

     Using Slab Decomposition

     Reading collected, re-writing distributed wavefunctions


     Dynamical matrices for ( 4, 4, 4)  uniform grid of q-points
     (   8 q-points):
       N         xq(1)         xq(2)         xq(3) 
       1   0.000000000   0.000000000   0.000000000
       2  -0.176776695   0.176776695   0.176776695
       3   0.353553391  -0.353553391  -0.353553391
       4   0.000000000   0.000000000   0.353553391
       5   0.530330086  -0.530330086  -0.176776695
       6   0.353553391  -0.353553391   0.000000000
       7   0.000000000   0.000000000  -0.707106781
       8   0.000000000   0.353553391  -0.707106781

     Calculation of q =    0.0000000   0.0000000   0.0000000

     phonons of Si mesh                                                         

     bravais-lattice index     =            0
     lattice parameter (alat)  =       7.3077  a.u.
     unit-cell volume          =     275.9486 (a.u.)^3
     number of atoms/cell      =            2
     number of atomic types    =            1
     kinetic-energy cut-off    =      30.0000  Ry
     charge density cut-off    =     240.0000  Ry
     convergence threshold     =      1.0E-16
     beta                      =       0.5000
     number of iterations used =            4
     Exchange-correlation= PBE
                           (   1   4   3   4   0   0   0)


     celldm(1)=    7.30771  celldm(2)=    0.00000  celldm(3)=    0.00000
     celldm(4)=    0.00000  celldm(5)=    0.00000  celldm(6)=    0.00000

     crystal axes: (cart. coord. in units of alat)
               a(1) = (  0.7071  0.7071  0.0000 )  
               a(2) = (  0.7071  0.0000  0.7071 )  
               a(3) = (  0.0000  0.7071  0.7071 )  

     reciprocal axes: (cart. coord. in units 2 pi/alat)
               b(1) = (  0.7071  0.7071 -0.7071 )  
               b(2) = (  0.7071 -0.7071  0.7071 )  
               b(3) = ( -0.7071  0.7071  0.7071 )  


     Atoms inside the unit cell: 

     Cartesian axes

     site n.  atom      mass           positions (alat units)
        1     Si  28.0855   tau(    1) = (    0.00000    0.00000    0.00000  )
        2     Si  28.0855   tau(    2) = (    0.35355    0.35355    0.35355  )

     Computing dynamical matrix for 
                    q = (   0.0000000   0.0000000   0.0000000 )

     49 Sym.Ops. (with q -> -q+G )


     G cutoff =  324.6487  (  17261 G-vectors)     FFT grid: ( 40, 40, 40)
     G cutoff =  162.3244  (   6183 G-vectors)  smooth grid: ( 32, 32, 32)
     number of k points=    29

     PseudoPot. # 1 for Si read from file:
     ./pseudo/Si.pbe-n-rrkjus_psl.1.0.0.UPF
     MD5 check sum: 0b0bb1205258b0d07b9f9672cf965d36
     Pseudo is Ultrasoft + core correction, Zval =  4.0
     Generated using "atomic" code by A. Dal Corso  v.5.1
     Using radial grid of 1141 points,  6 beta functions with: 
                l(1) =   0
                l(2) =   0
                l(3) =   1
                l(4) =   1
                l(5) =   2
                l(6) =   2
     Q(r) pseudized with 0 coefficients 


     Mode symmetry, O_h (m-3m)  point group:


     Electric field:
     Dielectric constant
     Born effective charges in two ways 


     Atomic displacements:
     There are    2 irreducible representations

     Representation     1      3 modes -  To be done

     Representation     2      3 modes -  To be done



     Alpha used in Ewald sum =   2.5000
     PHONON       :      3.07s CPU      3.14s WALL


     Electric Fields Calculation

      iter #   1 total cpu time :    10.0 secs   av.it.:   6.4
      thresh= 1.000E-02 alpha_mix =  0.500 |ddv_scf|^2 =  1.969E-07

      iter #   2 total cpu time :    13.3 secs   av.it.:  10.3
      thresh= 4.437E-05 alpha_mix =  0.500 |ddv_scf|^2 =  1.197E-08

      iter #   3 total cpu time :    16.6 secs   av.it.:  10.3
      thresh= 1.094E-05 alpha_mix =  0.500 |ddv_scf|^2 =  1.796E-09

      iter #   4 total cpu time :    19.9 secs   av.it.:  10.3
      thresh= 4.238E-06 alpha_mix =  0.500 |ddv_scf|^2 =  1.303E-11

      iter #   5 total cpu time :    22.9 secs   av.it.:  10.4
      thresh= 3.610E-07 alpha_mix =  0.500 |ddv_scf|^2 =  4.506E-14

      iter #   6 total cpu time :    26.0 secs   av.it.:  10.5
      thresh= 2.123E-08 alpha_mix =  0.500 |ddv_scf|^2 =  2.493E-15

      iter #   7 total cpu time :    28.8 secs   av.it.:  10.3
      thresh= 4.993E-09 alpha_mix =  0.500 |ddv_scf|^2 =  2.119E-18

     End of electric fields calculation

          Dielectric constant in cartesian axis 

          (      14.147436348       0.000000000       0.000000000 )
          (      -0.000000000      14.147436348      -0.000000000 )
          (       0.000000000      -0.000000000      14.147436348 )

          Effective charges (d Force / dE) in cartesian axis

           atom      1   Si 
      Ex  (       -0.08864       -0.00000        0.00000 )
      Ey  (       -0.00000       -0.08864       -0.00000 )
      Ez  (       -0.00000       -0.00000       -0.08864 )
           atom      2   Si 
      Ex  (       -0.08864       -0.00000        0.00000 )
      Ey  (       -0.00000       -0.08864       -0.00000 )
      Ez  (        0.00000       -0.00000       -0.08864 )


     Representation #   1 modes #   1   2   3

     Self-consistent Calculation

      iter #   1 total cpu time :    34.5 secs   av.it.:   5.3
      thresh= 1.000E-02 alpha_mix =  0.500 |ddv_scf|^2 =  2.466E-08

      iter #   2 total cpu time :    37.4 secs   av.it.:  10.3
      thresh= 1.570E-05 alpha_mix =  0.500 |ddv_scf|^2 =  4.214E-09

      iter #   3 total cpu time :    40.6 secs   av.it.:  10.3
      thresh= 6.492E-06 alpha_mix =  0.500 |ddv_scf|^2 =  2.448E-10

      iter #   4 total cpu time :    43.5 secs   av.it.:  10.4
      thresh= 1.565E-06 alpha_mix =  0.500 |ddv_scf|^2 =  4.868E-13

      iter #   5 total cpu time :    46.9 secs   av.it.:  10.9
      thresh= 6.977E-08 alpha_mix =  0.500 |ddv_scf|^2 =  2.111E-14

      iter #   6 total cpu time :    50.2 secs   av.it.:  11.0
      thresh= 1.453E-08 alpha_mix =  0.500 |ddv_scf|^2 =  1.014E-15

      iter #   7 total cpu time :    53.5 secs   av.it.:  10.8
      thresh= 3.184E-09 alpha_mix =  0.500 |ddv_scf|^2 =  2.952E-18

     End of self-consistent calculation

     Convergence has been achieved 


     Representation #   2 modes #   4   5   6

     Self-consistent Calculation

      iter #   1 total cpu time :    56.9 secs   av.it.:   5.4
      thresh= 1.000E-02 alpha_mix =  0.500 |ddv_scf|^2 =  2.269E-08

      iter #   2 total cpu time :    59.6 secs   av.it.:  10.4
      thresh= 1.506E-05 alpha_mix =  0.500 |ddv_scf|^2 =  4.376E-09

      iter #   3 total cpu time :    62.4 secs   av.it.:  10.6
      thresh= 6.615E-06 alpha_mix =  0.500 |ddv_scf|^2 =  1.642E-10

      iter #   4 total cpu time :    65.4 secs   av.it.:  10.5
      thresh= 1.282E-06 alpha_mix =  0.500 |ddv_scf|^2 =  4.759E-13

      iter #   5 total cpu time :    68.5 secs   av.it.:  10.8
      thresh= 6.898E-08 alpha_mix =  0.500 |ddv_scf|^2 =  9.397E-15

      iter #   6 total cpu time :    71.4 secs   av.it.:  10.7
      thresh= 9.694E-09 alpha_mix =  0.500 |ddv_scf|^2 =  3.832E-16

      iter #   7 total cpu time :    74.3 secs   av.it.:  10.5
      thresh= 1.958E-09 alpha_mix =  0.500 |ddv_scf|^2 =  1.535E-18

     End of self-consistent calculation

     Convergence has been achieved 

     Number of q in the star =    1
     List of q in the star:
          1   0.000000000   0.000000000   0.000000000

          Dielectric constant in cartesian axis 

          (      14.147436348       0.000000000       0.000000000 )
          (      -0.000000000      14.147436348      -0.000000000 )
          (       0.000000000      -0.000000000      14.147436348 )

          Effective charges (d Force / dE) in cartesian axis

           atom      1   Si 
      Ex  (       -0.08864       -0.00000        0.00000 )
      Ey  (       -0.00000       -0.08864       -0.00000 )
      Ez  (       -0.00000       -0.00000       -0.08864 )
           atom      2   Si 
      Ex  (       -0.08864       -0.00000        0.00000 )
      Ey  (       -0.00000       -0.08864       -0.00000 )
      Ez  (        0.00000       -0.00000       -0.08864 )

          Effective charges (d P / du) in cartesian axis 

           atom      1   Si 
      Px  (       -0.08864        0.00000        0.00000 )
      Py  (        0.00000       -0.08864        0.00000 )
      Pz  (        0.00000        0.00000       -0.08864 )
           atom      2   Si 
      Px  (       -0.08864        0.00000        0.00000 )
      Py  (        0.00000       -0.08864        0.00000 )
      Pz  (        0.00000        0.00000       -0.08864 )

     Diagonalizing the dynamical matrix

     q = (    0.000000000   0.000000000   0.000000000 ) 

 **************************************************************************
     freq (    1) =      -0.384769 [THz] =     -12.834502 [cm-1]
     freq (    2) =      -0.384769 [THz] =     -12.834502 [cm-1]
     freq (    3) =      -0.384769 [THz] =     -12.834502 [cm-1]
     freq (    4) =      15.102194 [THz] =     503.754982 [cm-1]
     freq (    5) =      15.102194 [THz] =     503.754982 [cm-1]
     freq (    6) =      15.102194 [THz] =     503.754982 [cm-1]
 **************************************************************************

     Mode symmetry, O_h (m-3m)  point group:

     freq (   1-   3) =        -12.8  [cm-1]   --> T_1u G_15  G_4- I  
     freq (   4-   6) =        503.8  [cm-1]   --> T_2g G_25' G_5+ R  

     Calculation of q =   -0.1767767   0.1767767   0.1767767

     Subspace diagonalization in iterative solution of the eigenvalue problem:
     a serial algorithm will be used


     G-vector sticks info
     --------------------
     sticks:   dense  smooth     PW     G-vecs:    dense   smooth      PW
     Sum         877     439    151                17261     6183    1243

     Using Slab Decomposition


     Title: 
     phonons of Si mesh                                                         


     bravais-lattice index     =            0
     lattice parameter (alat)  =       7.3077  a.u.
     unit-cell volume          =     275.9486 (a.u.)^3
     number of atoms/cell      =            2
     number of atomic types    =            1
     number of electrons       =         8.00
     number of Kohn-Sham states=            4
     kinetic-energy cutoff     =      30.0000  Ry
     charge density cutoff     =     240.0000  Ry
     Exchange-correlation= PBE
                           (   1   4   3   4   0   0   0)

     celldm(1)=   7.307706  celldm(2)=   0.000000  celldm(3)=   0.000000
     celldm(4)=   0.000000  celldm(5)=   0.000000  celldm(6)=   0.000000

     crystal axes: (cart. coord. in units of alat)
               a(1) = (   0.707107   0.707107   0.000000 )  
               a(2) = (   0.707107   0.000000   0.707107 )  
               a(3) = (   0.000000   0.707107   0.707107 )  

     reciprocal axes: (cart. coord. in units 2 pi/alat)
               b(1) = (  0.707107  0.707107 -0.707107 )  
               b(2) = (  0.707107 -0.707107  0.707107 )  
               b(3) = ( -0.707107  0.707107  0.707107 )  


     PseudoPot. # 1 for Si read from file:
     ./pseudo/Si.pbe-n-rrkjus_psl.1.0.0.UPF
     MD5 check sum: 0b0bb1205258b0d07b9f9672cf965d36
     Pseudo is Ultrasoft + core correction, Zval =  4.0
     Generated using "atomic" code by A. Dal Corso  v.5.1
     Using radial grid of 1141 points,  6 beta functions with: 
                l(1) =   0
                l(2) =   0
                l(3) =   1
                l(4) =   1
                l(5) =   2
                l(6) =   2
     Q(r) pseudized with 0 coefficients 


     atomic species   valence    mass     pseudopotential
        Si             4.00    28.08550     Si( 1.00)

     48 Sym. Ops., with inversion, found



   Cartesian axes

     site n.     atom                  positions (alat units)
         1           Si  tau(   1) = (   0.0000000   0.0000000   0.0000000  )
         2           Si  tau(   2) = (   0.3535534   0.3535534   0.3535534  )

     number of k points=   240

     Number of k-points >= 100: set verbosity='high' to print them.

     Dense  grid:    17261 G-vectors     FFT dimensions: (  40,  40,  40)

     Smooth grid:     6183 G-vectors     FFT dimensions: (  32,  32,  32)

     Estimated max dynamical RAM per process >      57.77 MB

     The potential is recalculated from file :
     ./_ph0/si.save/charge-density

     Starting wfcs are    8 atomic wfcs

     Band Structure Calculation
     Davidson diagonalization with overlap

     ethr =  1.25E-10,  avg # of iterations = 13.1

     total cpu time spent up to now is        7.4 secs

     End of band structure calculation

     Number of k-points >= 100: set verbosity='high' to print the bands.

     highest occupied level (ev):     5.9865

     Writing output data file ./_ph0/si.save/

     phonons of Si mesh                                                         

     bravais-lattice index     =            0
     lattice parameter (alat)  =       7.3077  a.u.
     unit-cell volume          =     275.9486 (a.u.)^3
     number of atoms/cell      =            2
     number of atomic types    =            1
     kinetic-energy cut-off    =      30.0000  Ry
     charge density cut-off    =     240.0000  Ry
     convergence threshold     =      1.0E-16
     beta                      =       0.5000
     number of iterations used =            4
     Exchange-correlation= PBE
                           (   1   4   3   4   0   0   0)


     celldm(1)=    7.30771  celldm(2)=    0.00000  celldm(3)=    0.00000
     celldm(4)=    0.00000  celldm(5)=    0.00000  celldm(6)=    0.00000

     crystal axes: (cart. coord. in units of alat)
               a(1) = (  0.7071  0.7071  0.0000 )  
               a(2) = (  0.7071  0.0000  0.7071 )  
               a(3) = (  0.0000  0.7071  0.7071 )  

     reciprocal axes: (cart. coord. in units 2 pi/alat)
               b(1) = (  0.7071  0.7071 -0.7071 )  
               b(2) = (  0.7071 -0.7071  0.7071 )  
               b(3) = ( -0.7071  0.7071  0.7071 )  


     Atoms inside the unit cell: 

     Cartesian axes

     site n.  atom      mass           positions (alat units)
        1     Si  28.0855   tau(    1) = (    0.00000    0.00000    0.00000  )
        2     Si  28.0855   tau(    2) = (    0.35355    0.35355    0.35355  )

     Computing dynamical matrix for 
                    q = (  -0.1767767   0.1767767   0.1767767 )

      6 Sym.Ops. (no q -> -q+G )


     G cutoff =  324.6487  (  17261 G-vectors)     FFT grid: ( 40, 40, 40)
     G cutoff =  162.3244  (   6183 G-vectors)  smooth grid: ( 32, 32, 32)
     number of k points=   240

     PseudoPot. # 1 for Si read from file:
     ./pseudo/Si.pbe-n-rrkjus_psl.1.0.0.UPF
     MD5 check sum: 0b0bb1205258b0d07b9f9672cf965d36
     Pseudo is Ultrasoft + core correction, Zval =  4.0
     Generated using "atomic" code by A. Dal Corso  v.5.1
     Using radial grid of 1141 points,  6 beta functions with: 
                l(1) =   0
                l(2) =   0
                l(3) =   1
                l(4) =   1
                l(5) =   2
                l(6) =   2
     Q(r) pseudized with 0 coefficients 


     Mode symmetry, C_3v (3m)   point group:


     Atomic displacements:
     There are    4 irreducible representations

     Representation     1      1 modes -  To be done

     Representation     2      1 modes -  To be done

     Representation     3      2 modes -  To be done

     Representation     4      2 modes -  To be done



     Alpha used in Ewald sum =   2.5000
     PHONON       :   1m24.92s CPU   1m26.16s WALL



     Representation #   1 mode #   1

     Self-consistent Calculation

      iter #   1 total cpu time :    89.0 secs   av.it.:   6.2
      thresh= 1.000E-02 alpha_mix =  0.500 |ddv_scf|^2 =  3.101E-04

      iter #   2 total cpu time :    92.4 secs   av.it.:   8.4
      thresh= 1.761E-03 alpha_mix =  0.500 |ddv_scf|^2 =  1.939E-03

      iter #   3 total cpu time :    95.4 secs   av.it.:   7.2
      thresh= 4.404E-03 alpha_mix =  0.500 |ddv_scf|^2 =  1.007E-07

      iter #   4 total cpu time :    98.3 secs   av.it.:   8.7
      thresh= 3.173E-05 alpha_mix =  0.500 |ddv_scf|^2 =  6.570E-09

      iter #   5 total cpu time :   101.4 secs   av.it.:   9.3
      thresh= 8.106E-06 alpha_mix =  0.500 |ddv_scf|^2 =  1.485E-10

      iter #   6 total cpu time :   104.6 secs   av.it.:   9.2
      thresh= 1.218E-06 alpha_mix =  0.500 |ddv_scf|^2 =  2.595E-12

      iter #   7 total cpu time :   108.2 secs   av.it.:  10.1
      thresh= 1.611E-07 alpha_mix =  0.500 |ddv_scf|^2 =  4.073E-12

      iter #   8 total cpu time :   111.4 secs   av.it.:   7.8
      thresh= 2.018E-07 alpha_mix =  0.500 |ddv_scf|^2 =  3.724E-13

      iter #   9 total cpu time :   115.2 secs   av.it.:   9.7
      thresh= 6.102E-08 alpha_mix =  0.500 |ddv_scf|^2 =  1.050E-14

      iter #  10 total cpu time :   118.8 secs   av.it.:   9.2
      thresh= 1.025E-08 alpha_mix =  0.500 |ddv_scf|^2 =  1.540E-14

      iter #  11 total cpu time :   122.3 secs   av.it.:   8.5
      thresh= 1.241E-08 alpha_mix =  0.500 |ddv_scf|^2 =  1.476E-16

      iter #  12 total cpu time :   126.1 secs   av.it.:   9.6
      thresh= 1.215E-09 alpha_mix =  0.500 |ddv_scf|^2 =  8.676E-17

     End of self-consistent calculation

     Convergence has been achieved 


     Representation #   2 mode #   2

     Self-consistent Calculation

      iter #   1 total cpu time :   129.0 secs   av.it.:   6.2
      thresh= 1.000E-02 alpha_mix =  0.500 |ddv_scf|^2 =  3.101E-04

      iter #   2 total cpu time :   132.3 secs   av.it.:   8.4
      thresh= 1.761E-03 alpha_mix =  0.500 |ddv_scf|^2 =  1.939E-03

      iter #   3 total cpu time :   135.4 secs   av.it.:   7.2
      thresh= 4.404E-03 alpha_mix =  0.500 |ddv_scf|^2 =  1.008E-07

      iter #   4 total cpu time :   138.8 secs   av.it.:   8.7
      thresh= 3.175E-05 alpha_mix =  0.500 |ddv_scf|^2 =  6.569E-09

      iter #   5 total cpu time :   142.4 secs   av.it.:   9.3
      thresh= 8.105E-06 alpha_mix =  0.500 |ddv_scf|^2 =  1.495E-10

      iter #   6 total cpu time :   146.0 secs   av.it.:   9.2
      thresh= 1.223E-06 alpha_mix =  0.500 |ddv_scf|^2 =  2.227E-12

      iter #   7 total cpu time :   149.9 secs   av.it.:  10.2
      thresh= 1.492E-07 alpha_mix =  0.500 |ddv_scf|^2 =  2.530E-13

      iter #   8 total cpu time :   153.7 secs   av.it.:   9.7
      thresh= 5.030E-08 alpha_mix =  0.500 |ddv_scf|^2 =  1.082E-12

      iter #   9 total cpu time :   156.8 secs   av.it.:   7.8
      thresh= 1.040E-07 alpha_mix =  0.500 |ddv_scf|^2 =  2.314E-14

      iter #  10 total cpu time :   160.3 secs   av.it.:   8.9
      thresh= 1.521E-08 alpha_mix =  0.500 |ddv_scf|^2 =  9.236E-15

      iter #  11 total cpu time :   163.7 secs   av.it.:   8.6
      thresh= 9.611E-09 alpha_mix =  0.500 |ddv_scf|^2 =  4.045E-16

      iter #  12 total cpu time :   167.4 secs   av.it.:   9.4
      thresh= 2.011E-09 alpha_mix =  0.500 |ddv_scf|^2 =  1.262E-16

      iter #  13 total cpu time :   170.9 secs   av.it.:   9.1
      thresh= 1.123E-09 alpha_mix =  0.500 |ddv_scf|^2 =  3.095E-18

     End of self-consistent calculation

     Convergence has been achieved 


     Representation #   3 modes #   3   4

     Self-consistent Calculation

      iter #   1 total cpu time :   176.3 secs   av.it.:   5.6
      thresh= 1.000E-02 alpha_mix =  0.500 |ddv_scf|^2 =  6.607E-08

      iter #   2 total cpu time :   184.3 secs   av.it.:  10.4
      thresh= 2.570E-05 alpha_mix =  0.500 |ddv_scf|^2 =  9.583E-09

      iter #   3 total cpu time :   192.5 secs   av.it.:  10.3
      thresh= 9.789E-06 alpha_mix =  0.500 |ddv_scf|^2 =  8.709E-10

      iter #   4 total cpu time :   200.9 secs   av.it.:  10.4
      thresh= 2.951E-06 alpha_mix =  0.500 |ddv_scf|^2 =  1.933E-12

      iter #   5 total cpu time :   209.6 secs   av.it.:  11.0
      thresh= 1.390E-07 alpha_mix =  0.500 |ddv_scf|^2 =  1.269E-13

      iter #   6 total cpu time :   217.9 secs   av.it.:  11.0
      thresh= 3.563E-08 alpha_mix =  0.500 |ddv_scf|^2 =  2.609E-15

      iter #   7 total cpu time :   224.7 secs   av.it.:  10.7
      thresh= 5.108E-09 alpha_mix =  0.500 |ddv_scf|^2 =  2.308E-16

      iter #   8 total cpu time :   231.5 secs   av.it.:  10.6
      thresh= 1.519E-09 alpha_mix =  0.500 |ddv_scf|^2 =  2.511E-17

     End of self-consistent calculation

     Convergence has been achieved 


     Representation #   4 modes #   5   6

     Self-consistent Calculation

      iter #   1 total cpu time :   236.4 secs   av.it.:   5.6
      thresh= 1.000E-02 alpha_mix =  0.500 |ddv_scf|^2 =  6.607E-08

      iter #   2 total cpu time :   244.5 secs   av.it.:  10.4
      thresh= 2.570E-05 alpha_mix =  0.500 |ddv_scf|^2 =  9.583E-09

      iter #   3 total cpu time :   252.1 secs   av.it.:  10.3
      thresh= 9.789E-06 alpha_mix =  0.500 |ddv_scf|^2 =  8.708E-10

      iter #   4 total cpu time :   258.9 secs   av.it.:  10.4
      thresh= 2.951E-06 alpha_mix =  0.500 |ddv_scf|^2 =  1.932E-12

      iter #   5 total cpu time :   266.8 secs   av.it.:  10.9
      thresh= 1.390E-07 alpha_mix =  0.500 |ddv_scf|^2 =  1.268E-13

      iter #   6 total cpu time :   273.8 secs   av.it.:  11.0
      thresh= 3.560E-08 alpha_mix =  0.500 |ddv_scf|^2 =  2.620E-15

      iter #   7 total cpu time :   280.8 secs   av.it.:  10.7
      thresh= 5.119E-09 alpha_mix =  0.500 |ddv_scf|^2 =  2.309E-16

      iter #   8 total cpu time :   287.6 secs   av.it.:  10.6
      thresh= 1.519E-09 alpha_mix =  0.500 |ddv_scf|^2 =  2.528E-17

     End of self-consistent calculation

     Convergence has been achieved 

     Number of q in the star =    8
     List of q in the star:
          1  -0.176776695   0.176776695   0.176776695
          2  -0.176776695  -0.176776695  -0.176776695
          3   0.176776695  -0.176776695   0.176776695
          4   0.176776695  -0.176776695  -0.176776695
          5  -0.176776695   0.176776695  -0.176776695
          6  -0.176776695  -0.176776695   0.176776695
          7   0.176776695   0.176776695  -0.176776695
          8   0.176776695   0.176776695   0.176776695

     Diagonalizing the dynamical matrix

     q = (   -0.176776695   0.176776695   0.176776695 ) 

 **************************************************************************
     freq (    1) =       2.813813 [THz] =      93.858683 [cm-1]
     freq (    2) =       2.813813 [THz] =      93.858683 [cm-1]
     freq (    3) =       6.749337 [THz] =     225.133664 [cm-1]
     freq (    4) =      14.237061 [THz] =     474.897225 [cm-1]
     freq (    5) =      14.524998 [THz] =     484.501795 [cm-1]
     freq (    6) =      14.524998 [THz] =     484.501795 [cm-1]
 **************************************************************************

     Mode symmetry, C_3v (3m)   point group:

     freq (   1-   2) =         93.9  [cm-1]   --> E    L_3           
     freq (   3-   3) =        225.1  [cm-1]   --> A_1  L_1           
     freq (   4-   4) =        474.9  [cm-1]   --> A_1  L_1           
     freq (   5-   6) =        484.5  [cm-1]   --> E    L_3           

     Calculation of q =    0.3535534  -0.3535534  -0.3535534

     G-vector sticks info
     --------------------
     sticks:   dense  smooth     PW     G-vecs:    dense   smooth      PW
     Sum         877     439    163                17261     6183    1459

     Using Slab Decomposition


     Title: 
     phonons of Si mesh                                                         


     bravais-lattice index     =            0
     lattice parameter (alat)  =       7.3077  a.u.
     unit-cell volume          =     275.9486 (a.u.)^3
     number of atoms/cell      =            2
     number of atomic types    =            1
     number of electrons       =         8.00
     number of Kohn-Sham states=            4
     kinetic-energy cutoff     =      30.0000  Ry
     charge density cutoff     =     240.0000  Ry
     Exchange-correlation= PBE
                           (   1   4   3   4   0   0   0)

     celldm(1)=   7.307706  celldm(2)=   0.000000  celldm(3)=   0.000000
     celldm(4)=   0.000000  celldm(5)=   0.000000  celldm(6)=   0.000000

     crystal axes: (cart. coord. in units of alat)
               a(1) = (   0.707107   0.707107   0.000000 )  
               a(2) = (   0.707107   0.000000   0.707107 )  
               a(3) = (   0.000000   0.707107   0.707107 )  

     reciprocal axes: (cart. coord. in units 2 pi/alat)
               b(1) = (  0.707107  0.707107 -0.707107 )  
               b(2) = (  0.707107 -0.707107  0.707107 )  
               b(3) = ( -0.707107  0.707107  0.707107 )  


     PseudoPot. # 1 for Si read from file:
     ./pseudo/Si.pbe-n-rrkjus_psl.1.0.0.UPF
     MD5 check sum: 0b0bb1205258b0d07b9f9672cf965d36
     Pseudo is Ultrasoft + core correction, Zval =  4.0
     Generated using "atomic" code by A. Dal Corso  v.5.1
     Using radial grid of 1141 points,  6 beta functions with: 
                l(1) =   0
                l(2) =   0
                l(3) =   1
                l(4) =   1
                l(5) =   2
                l(6) =   2
     Q(r) pseudized with 0 coefficients 


     atomic species   valence    mass     pseudopotential
        Si             4.00    28.08550     Si( 1.00)

     48 Sym. Ops., with inversion, found



   Cartesian axes

     site n.     atom                  positions (alat units)
         1           Si  tau(   1) = (   0.0000000   0.0000000   0.0000000  )
         2           Si  tau(   2) = (   0.3535534   0.3535534   0.3535534  )

     number of k points=   130

     Number of k-points >= 100: set verbosity='high' to print them.

     Dense  grid:    17261 G-vectors     FFT dimensions: (  40,  40,  40)

     Smooth grid:     6183 G-vectors     FFT dimensions: (  32,  32,  32)

     Estimated max dynamical RAM per process >      57.79 MB

     The potential is recalculated from file :
     ./_ph0/si.save/charge-density

     Starting wfcs are    8 atomic wfcs

     Band Structure Calculation
     Davidson diagonalization with overlap

     ethr =  1.25E-10,  avg # of iterations = 13.0

     total cpu time spent up to now is       11.5 secs

     End of band structure calculation

     Number of k-points >= 100: set verbosity='high' to print the bands.

     highest occupied level (ev):     5.9865

     Writing output data file ./_ph0/si.save/

     phonons of Si mesh                                                         

     bravais-lattice index     =            0
     lattice parameter (alat)  =       7.3077  a.u.
     unit-cell volume          =     275.9486 (a.u.)^3
     number of atoms/cell      =            2
     number of atomic types    =            1
     kinetic-energy cut-off    =      30.0000  Ry
     charge density cut-off    =     240.0000  Ry
     convergence threshold     =      1.0E-16
     beta                      =       0.5000
     number of iterations used =            4
     Exchange-correlation= PBE
                           (   1   4   3   4   0   0   0)


     celldm(1)=    7.30771  celldm(2)=    0.00000  celldm(3)=    0.00000
     celldm(4)=    0.00000  celldm(5)=    0.00000  celldm(6)=    0.00000

     crystal axes: (cart. coord. in units of alat)
               a(1) = (  0.7071  0.7071  0.0000 )  
               a(2) = (  0.7071  0.0000  0.7071 )  
               a(3) = (  0.0000  0.7071  0.7071 )  

     reciprocal axes: (cart. coord. in units 2 pi/alat)
               b(1) = (  0.7071  0.7071 -0.7071 )  
               b(2) = (  0.7071 -0.7071  0.7071 )  
               b(3) = ( -0.7071  0.7071  0.7071 )  


     Atoms inside the unit cell: 

     Cartesian axes

     site n.  atom      mass           positions (alat units)
        1     Si  28.0855   tau(    1) = (    0.00000    0.00000    0.00000  )
        2     Si  28.0855   tau(    2) = (    0.35355    0.35355    0.35355  )

     Computing dynamical matrix for 
                    q = (   0.3535534  -0.3535534  -0.3535534 )

     13 Sym.Ops. (with q -> -q+G )


     G cutoff =  324.6487  (  17261 G-vectors)     FFT grid: ( 40, 40, 40)
     G cutoff =  162.3244  (   6183 G-vectors)  smooth grid: ( 32, 32, 32)
     number of k points=   130

     PseudoPot. # 1 for Si read from file:
     ./pseudo/Si.pbe-n-rrkjus_psl.1.0.0.UPF
     MD5 check sum: 0b0bb1205258b0d07b9f9672cf965d36
     Pseudo is Ultrasoft + core correction, Zval =  4.0
     Generated using "atomic" code by A. Dal Corso  v.5.1
     Using radial grid of 1141 points,  6 beta functions with: 
                l(1) =   0
                l(2) =   0
                l(3) =   1
                l(4) =   1
                l(5) =   2
                l(6) =   2
     Q(r) pseudized with 0 coefficients 



     Atomic displacements:
     There are    4 irreducible representations

     Representation     1      1 modes -  To be done

     Representation     2      1 modes -  To be done

     Representation     3      2 modes -  To be done

     Representation     4      2 modes -  To be done



     Alpha used in Ewald sum =   2.5000
     PHONON       :   4m51.06s CPU   4m54.60s WALL



     Representation #   1 mode #   1

     Self-consistent Calculation

      iter #   1 total cpu time :   295.9 secs   av.it.:   5.2
      thresh= 1.000E-02 alpha_mix =  0.500 |ddv_scf|^2 =  3.133E-06

      iter #   2 total cpu time :   297.7 secs   av.it.:   9.0
      thresh= 1.770E-04 alpha_mix =  0.500 |ddv_scf|^2 =  5.174E-07

      iter #   3 total cpu time :   299.4 secs   av.it.:   8.8
      thresh= 7.193E-05 alpha_mix =  0.500 |ddv_scf|^2 =  1.339E-08

      iter #   4 total cpu time :   301.2 secs   av.it.:   9.1
      thresh= 1.157E-05 alpha_mix =  0.500 |ddv_scf|^2 =  3.276E-11

      iter #   5 total cpu time :   303.0 secs   av.it.:   9.6
      thresh= 5.724E-07 alpha_mix =  0.500 |ddv_scf|^2 =  3.358E-12

      iter #   6 total cpu time :   304.8 secs   av.it.:   9.3
      thresh= 1.832E-07 alpha_mix =  0.500 |ddv_scf|^2 =  8.476E-14

      iter #   7 total cpu time :   306.6 secs   av.it.:   9.3
      thresh= 2.911E-08 alpha_mix =  0.500 |ddv_scf|^2 =  5.505E-16

      iter #   8 total cpu time :   308.4 secs   av.it.:   9.0
      thresh= 2.346E-09 alpha_mix =  0.500 |ddv_scf|^2 =  1.174E-16

      iter #   9 total cpu time :   310.2 secs   av.it.:   9.4
      thresh= 1.084E-09 alpha_mix =  0.500 |ddv_scf|^2 =  2.415E-18

     End of self-consistent calculation

     Convergence has been achieved 


     Representation #   2 mode #   2

     Self-consistent Calculation

      iter #   1 total cpu time :   311.8 secs   av.it.:   6.2
      thresh= 1.000E-02 alpha_mix =  0.500 |ddv_scf|^2 =  4.304E-05

      iter #   2 total cpu time :   313.6 secs   av.it.:   9.1
      thresh= 6.560E-04 alpha_mix =  0.500 |ddv_scf|^2 =  4.107E-05

      iter #   3 total cpu time :   315.3 secs   av.it.:   8.5
      thresh= 6.409E-04 alpha_mix =  0.500 |ddv_scf|^2 =  2.418E-08

      iter #   4 total cpu time :   317.0 secs   av.it.:   9.0
      thresh= 1.555E-05 alpha_mix =  0.500 |ddv_scf|^2 =  1.030E-09

      iter #   5 total cpu time :   318.8 secs   av.it.:   9.2
      thresh= 3.209E-06 alpha_mix =  0.500 |ddv_scf|^2 =  5.285E-12

      iter #   6 total cpu time :   320.7 secs   av.it.:   9.5
      thresh= 2.299E-07 alpha_mix =  0.500 |ddv_scf|^2 =  1.345E-13

      iter #   7 total cpu time :   322.4 secs   av.it.:   9.2
      thresh= 3.667E-08 alpha_mix =  0.500 |ddv_scf|^2 =  9.116E-15

      iter #   8 total cpu time :   324.3 secs   av.it.:  10.0
      thresh= 9.548E-09 alpha_mix =  0.500 |ddv_scf|^2 =  1.790E-16

      iter #   9 total cpu time :   326.0 secs   av.it.:   8.4
      thresh= 1.338E-09 alpha_mix =  0.500 |ddv_scf|^2 =  4.437E-17

     End of self-consistent calculation

     Convergence has been achieved 


     Representation #   3 modes #   3   4

     Self-consistent Calculation

      iter #   1 total cpu time :   328.7 secs   av.it.:   5.4
      thresh= 1.000E-02 alpha_mix =  0.500 |ddv_scf|^2 =  1.118E-07

      iter #   2 total cpu time :   332.5 secs   av.it.:  10.2
      thresh= 3.344E-05 alpha_mix =  0.500 |ddv_scf|^2 =  9.742E-09

      iter #   3 total cpu time :   336.1 secs   av.it.:   9.6
      thresh= 9.870E-06 alpha_mix =  0.500 |ddv_scf|^2 =  1.478E-09

      iter #   4 total cpu time :   339.7 secs   av.it.:   9.9
      thresh= 3.844E-06 alpha_mix =  0.500 |ddv_scf|^2 =  1.092E-12

      iter #   5 total cpu time :   343.5 secs   av.it.:  10.4
      thresh= 1.045E-07 alpha_mix =  0.500 |ddv_scf|^2 =  3.884E-14

      iter #   6 total cpu time :   347.3 secs   av.it.:  10.5
      thresh= 1.971E-08 alpha_mix =  0.500 |ddv_scf|^2 =  1.680E-15

      iter #   7 total cpu time :   351.5 secs   av.it.:  10.5
      thresh= 4.099E-09 alpha_mix =  0.500 |ddv_scf|^2 =  2.682E-17

     End of self-consistent calculation

     Convergence has been achieved 


     Representation #   4 modes #   5   6

     Self-consistent Calculation

      iter #   1 total cpu time :   354.6 secs   av.it.:   5.3
      thresh= 1.000E-02 alpha_mix =  0.500 |ddv_scf|^2 =  4.260E-08

      iter #   2 total cpu time :   358.9 secs   av.it.:   9.9
      thresh= 2.064E-05 alpha_mix =  0.500 |ddv_scf|^2 =  9.338E-09

      iter #   3 total cpu time :   363.3 secs   av.it.:  10.3
      thresh= 9.663E-06 alpha_mix =  0.500 |ddv_scf|^2 =  9.638E-11

      iter #   4 total cpu time :   367.7 secs   av.it.:  10.6
      thresh= 9.817E-07 alpha_mix =  0.500 |ddv_scf|^2 =  1.064E-12

      iter #   5 total cpu time :   372.2 secs   av.it.:  10.7
      thresh= 1.031E-07 alpha_mix =  0.500 |ddv_scf|^2 =  3.753E-14

      iter #   6 total cpu time :   376.7 secs   av.it.:  10.6
      thresh= 1.937E-08 alpha_mix =  0.500 |ddv_scf|^2 =  2.728E-15

      iter #   7 total cpu time :   381.5 secs   av.it.:  10.8
      thresh= 5.223E-09 alpha_mix =  0.500 |ddv_scf|^2 =  2.695E-17

     End of self-consistent calculation

     Convergence has been achieved 

     Number of q in the star =    4
     List of q in the star:
          1   0.353553391  -0.353553391  -0.353553391
          2   0.353553391   0.353553391   0.353553391
          3  -0.353553391  -0.353553391   0.353553391
          4  -0.353553391   0.353553391  -0.353553391

     Diagonalizing the dynamical matrix

     q = (    0.353553391  -0.353553391  -0.353553391 ) 

 **************************************************************************
     freq (    1) =       3.303443 [THz] =     110.191013 [cm-1]
     freq (    2) =       3.303443 [THz] =     110.191013 [cm-1]
     freq (    3) =      11.111642 [THz] =     370.644476 [cm-1]
     freq (    4) =      11.983449 [THz] =     399.724820 [cm-1]
     freq (    5) =      14.318196 [THz] =     477.603595 [cm-1]
     freq (    6) =      14.318196 [THz] =     477.603595 [cm-1]
 **************************************************************************

     Calculation of q =    0.0000000   0.0000000   0.3535534

     G-vector sticks info
     --------------------
     sticks:   dense  smooth     PW     G-vecs:    dense   smooth      PW
     Sum         877     439    151                17261     6183    1243

     Using Slab Decomposition


     Title: 
     phonons of Si mesh                                                         


     bravais-lattice index     =            0
     lattice parameter (alat)  =       7.3077  a.u.
     unit-cell volume          =     275.9486 (a.u.)^3
     number of atoms/cell      =            2
     number of atomic types    =            1
     number of electrons       =         8.00
     number of Kohn-Sham states=            4
     kinetic-energy cutoff     =      30.0000  Ry
     charge density cutoff     =     240.0000  Ry
     Exchange-correlation= PBE
                           (   1   4   3   4   0   0   0)

     celldm(1)=   7.307706  celldm(2)=   0.000000  celldm(3)=   0.000000
     celldm(4)=   0.000000  celldm(5)=   0.000000  celldm(6)=   0.000000

     crystal axes: (cart. coord. in units of alat)
               a(1) = (   0.707107   0.707107   0.000000 )  
               a(2) = (   0.707107   0.000000   0.707107 )  
               a(3) = (   0.000000   0.707107   0.707107 )  

     reciprocal axes: (cart. coord. in units 2 pi/alat)
               b(1) = (  0.707107  0.707107 -0.707107 )  
               b(2) = (  0.707107 -0.707107  0.707107 )  
               b(3) = ( -0.707107  0.707107  0.707107 )  


     PseudoPot. # 1 for Si read from file:
     ./pseudo/Si.pbe-n-rrkjus_psl.1.0.0.UPF
     MD5 check sum: 0b0bb1205258b0d07b9f9672cf965d36
     Pseudo is Ultrasoft + core correction, Zval =  4.0
     Generated using "atomic" code by A. Dal Corso  v.5.1
     Using radial grid of 1141 points,  6 beta functions with: 
                l(1) =   0
                l(2) =   0
                l(3) =   1
                l(4) =   1
                l(5) =   2
                l(6) =   2
     Q(r) pseudized with 0 coefficients 


     atomic species   valence    mass     pseudopotential
        Si             4.00    28.08550     Si( 1.00)

     48 Sym. Ops., with inversion, found



   Cartesian axes

     site n.     atom                  positions (alat units)
         1           Si  tau(   1) = (   0.0000000   0.0000000   0.0000000  )
         2           Si  tau(   2) = (   0.3535534   0.3535534   0.3535534  )

     number of k points=   200

     Number of k-points >= 100: set verbosity='high' to print them.

     Dense  grid:    17261 G-vectors     FFT dimensions: (  40,  40,  40)

     Smooth grid:     6183 G-vectors     FFT dimensions: (  32,  32,  32)

     Estimated max dynamical RAM per process >      57.77 MB

     The potential is recalculated from file :
     ./_ph0/si.save/charge-density

     Starting wfcs are    8 atomic wfcs

     Band Structure Calculation
     Davidson diagonalization with overlap

     ethr =  1.25E-10,  avg # of iterations = 12.9

     total cpu time spent up to now is       18.9 secs

     End of band structure calculation

     Number of k-points >= 100: set verbosity='high' to print the bands.

     highest occupied level (ev):     5.9865

     Writing output data file ./_ph0/si.save/

     phonons of Si mesh                                                         

     bravais-lattice index     =            0
     lattice parameter (alat)  =       7.3077  a.u.
     unit-cell volume          =     275.9486 (a.u.)^3
     number of atoms/cell      =            2
     number of atomic types    =            1
     kinetic-energy cut-off    =      30.0000  Ry
     charge density cut-off    =     240.0000  Ry
     convergence threshold     =      1.0E-16
     beta                      =       0.5000
     number of iterations used =            4
     Exchange-correlation= PBE
                           (   1   4   3   4   0   0   0)


     celldm(1)=    7.30771  celldm(2)=    0.00000  celldm(3)=    0.00000
     celldm(4)=    0.00000  celldm(5)=    0.00000  celldm(6)=    0.00000

     crystal axes: (cart. coord. in units of alat)
               a(1) = (  0.7071  0.7071  0.0000 )  
               a(2) = (  0.7071  0.0000  0.7071 )  
               a(3) = (  0.0000  0.7071  0.7071 )  

     reciprocal axes: (cart. coord. in units 2 pi/alat)
               b(1) = (  0.7071  0.7071 -0.7071 )  
               b(2) = (  0.7071 -0.7071  0.7071 )  
               b(3) = ( -0.7071  0.7071  0.7071 )  


     Atoms inside the unit cell: 

     Cartesian axes

     site n.  atom      mass           positions (alat units)
        1     Si  28.0855   tau(    1) = (    0.00000    0.00000    0.00000  )
        2     Si  28.0855   tau(    2) = (    0.35355    0.35355    0.35355  )

     Computing dynamical matrix for 
                    q = (   0.0000000   0.0000000   0.3535534 )

      8 Sym.Ops. (no q -> -q+G )


     G cutoff =  324.6487  (  17261 G-vectors)     FFT grid: ( 40, 40, 40)
     G cutoff =  162.3244  (   6183 G-vectors)  smooth grid: ( 32, 32, 32)
     number of k points=   200

     PseudoPot. # 1 for Si read from file:
     ./pseudo/Si.pbe-n-rrkjus_psl.1.0.0.UPF
     MD5 check sum: 0b0bb1205258b0d07b9f9672cf965d36
     Pseudo is Ultrasoft + core correction, Zval =  4.0
     Generated using "atomic" code by A. Dal Corso  v.5.1
     Using radial grid of 1141 points,  6 beta functions with: 
                l(1) =   0
                l(2) =   0
                l(3) =   1
                l(4) =   1
                l(5) =   2
                l(6) =   2
     Q(r) pseudized with 0 coefficients 


     Mode symmetry, C_4v (4mm)  point group:


     Atomic displacements:
     There are    4 irreducible representations

     Representation     1      1 modes -  To be done

     Representation     2      1 modes -  To be done

     Representation     3      2 modes -  To be done

     Representation     4      2 modes -  To be done



     Alpha used in Ewald sum =   2.5000
     PHONON       :   6m27.82s CPU   6m32.41s WALL



     Representation #   1 mode #   1

     Self-consistent Calculation

      iter #   1 total cpu time :   394.8 secs   av.it.:   6.2
      thresh= 1.000E-02 alpha_mix =  0.500 |ddv_scf|^2 =  3.730E-04

      iter #   2 total cpu time :   397.6 secs   av.it.:   8.4
      thresh= 1.931E-03 alpha_mix =  0.500 |ddv_scf|^2 =  2.000E-03

      iter #   3 total cpu time :   399.8 secs   av.it.:   7.3
      thresh= 4.472E-03 alpha_mix =  0.500 |ddv_scf|^2 =  2.885E-08

      iter #   4 total cpu time :   402.3 secs   av.it.:   8.8
      thresh= 1.698E-05 alpha_mix =  0.500 |ddv_scf|^2 =  6.389E-09

      iter #   5 total cpu time :   404.8 secs   av.it.:   9.0
      thresh= 7.993E-06 alpha_mix =  0.500 |ddv_scf|^2 =  1.885E-11

      iter #   6 total cpu time :   407.4 secs   av.it.:   9.3
      thresh= 4.342E-07 alpha_mix =  0.500 |ddv_scf|^2 =  1.911E-12

      iter #   7 total cpu time :   410.1 secs   av.it.:   9.5
      thresh= 1.382E-07 alpha_mix =  0.500 |ddv_scf|^2 =  1.011E-13

      iter #   8 total cpu time :   412.4 secs   av.it.:   7.8
      thresh= 3.180E-08 alpha_mix =  0.500 |ddv_scf|^2 =  1.338E-14

      iter #   9 total cpu time :   414.9 secs   av.it.:   8.7
      thresh= 1.157E-08 alpha_mix =  0.500 |ddv_scf|^2 =  8.249E-16

      iter #  10 total cpu time :   417.6 secs   av.it.:   8.9
      thresh= 2.872E-09 alpha_mix =  0.500 |ddv_scf|^2 =  1.635E-17

     End of self-consistent calculation

     Convergence has been achieved 


     Representation #   2 mode #   2

     Self-consistent Calculation

      iter #   1 total cpu time :   419.8 secs   av.it.:   5.2
      thresh= 1.000E-02 alpha_mix =  0.500 |ddv_scf|^2 =  6.497E-07

      iter #   2 total cpu time :   422.8 secs   av.it.:   9.2
      thresh= 8.061E-05 alpha_mix =  0.500 |ddv_scf|^2 =  4.343E-08

      iter #   3 total cpu time :   425.4 secs   av.it.:   9.0
      thresh= 2.084E-05 alpha_mix =  0.500 |ddv_scf|^2 =  9.394E-09

      iter #   4 total cpu time :   428.1 secs   av.it.:   8.9
      thresh= 9.693E-06 alpha_mix =  0.500 |ddv_scf|^2 =  8.809E-11

      iter #   5 total cpu time :   430.9 secs   av.it.:   9.5
      thresh= 9.386E-07 alpha_mix =  0.500 |ddv_scf|^2 =  1.282E-12

      iter #   6 total cpu time :   433.6 secs   av.it.:   9.7
      thresh= 1.132E-07 alpha_mix =  0.500 |ddv_scf|^2 =  2.245E-14

      iter #   7 total cpu time :   436.3 secs   av.it.:   9.2
      thresh= 1.498E-08 alpha_mix =  0.500 |ddv_scf|^2 =  2.962E-15

      iter #   8 total cpu time :   438.9 secs   av.it.:   9.4
      thresh= 5.442E-09 alpha_mix =  0.500 |ddv_scf|^2 =  6.174E-17

     End of self-consistent calculation

     Convergence has been achieved 


     Representation #   3 modes #   3   4

     Self-consistent Calculation

      iter #   1 total cpu time :   443.0 secs   av.it.:   5.7
      thresh= 1.000E-02 alpha_mix =  0.500 |ddv_scf|^2 =  9.938E-08

      iter #   2 total cpu time :   448.7 secs   av.it.:  10.5
      thresh= 3.152E-05 alpha_mix =  0.500 |ddv_scf|^2 =  9.110E-09

      iter #   3 total cpu time :   454.4 secs   av.it.:   9.9
      thresh= 9.544E-06 alpha_mix =  0.500 |ddv_scf|^2 =  1.586E-09

      iter #   4 total cpu time :   460.1 secs   av.it.:  10.4
      thresh= 3.982E-06 alpha_mix =  0.500 |ddv_scf|^2 =  2.435E-12

      iter #   5 total cpu time :   465.9 secs   av.it.:  11.0
      thresh= 1.560E-07 alpha_mix =  0.500 |ddv_scf|^2 =  6.591E-14

      iter #   6 total cpu time :   471.7 secs   av.it.:  10.8
      thresh= 2.567E-08 alpha_mix =  0.500 |ddv_scf|^2 =  3.423E-15

      iter #   7 total cpu time :   477.7 secs   av.it.:  10.7
      thresh= 5.851E-09 alpha_mix =  0.500 |ddv_scf|^2 =  1.940E-16

      iter #   8 total cpu time :   484.5 secs   av.it.:  10.9
      thresh= 1.393E-09 alpha_mix =  0.500 |ddv_scf|^2 =  3.475E-18

     End of self-consistent calculation

     Convergence has been achieved 


     Representation #   4 modes #   5   6

     Self-consistent Calculation

      iter #   1 total cpu time :   488.8 secs   av.it.:   5.8
      thresh= 1.000E-02 alpha_mix =  0.500 |ddv_scf|^2 =  1.322E-07

      iter #   2 total cpu time :   495.3 secs   av.it.:  10.5
      thresh= 3.636E-05 alpha_mix =  0.500 |ddv_scf|^2 =  9.323E-09

      iter #   3 total cpu time :   501.5 secs   av.it.:   9.8
      thresh= 9.656E-06 alpha_mix =  0.500 |ddv_scf|^2 =  1.793E-09

      iter #   4 total cpu time :   507.1 secs   av.it.:  10.4
      thresh= 4.234E-06 alpha_mix =  0.500 |ddv_scf|^2 =  2.350E-12

      iter #   5 total cpu time :   512.9 secs   av.it.:  11.0
      thresh= 1.533E-07 alpha_mix =  0.500 |ddv_scf|^2 =  7.302E-14

      iter #   6 total cpu time :   518.7 secs   av.it.:  10.8
      thresh= 2.702E-08 alpha_mix =  0.500 |ddv_scf|^2 =  3.554E-15

      iter #   7 total cpu time :   524.5 secs   av.it.:  10.6
      thresh= 5.961E-09 alpha_mix =  0.500 |ddv_scf|^2 =  2.016E-16

      iter #   8 total cpu time :   530.3 secs   av.it.:  10.8
      thresh= 1.420E-09 alpha_mix =  0.500 |ddv_scf|^2 =  3.523E-18

     End of self-consistent calculation

     Convergence has been achieved 

     Number of q in the star =    6
     List of q in the star:
          1   0.000000000   0.000000000   0.353553391
          2   0.000000000  -0.353553391   0.000000000
          3   0.353553391   0.000000000   0.000000000
          4   0.000000000   0.000000000  -0.353553391
          5  -0.353553391   0.000000000   0.000000000
          6   0.000000000   0.353553391   0.000000000

     Diagonalizing the dynamical matrix

     q = (    0.000000000   0.000000000   0.353553391 ) 

 **************************************************************************
     freq (    1) =       3.783781 [THz] =     126.213364 [cm-1]
     freq (    2) =       3.783781 [THz] =     126.213364 [cm-1]
     freq (    3) =       7.058458 [THz] =     235.444831 [cm-1]
     freq (    4) =      13.859770 [THz] =     462.312169 [cm-1]
     freq (    5) =      13.859770 [THz] =     462.312169 [cm-1]
     freq (    6) =      14.478155 [THz] =     482.939280 [cm-1]
 **************************************************************************

     Mode symmetry, C_4v (4mm)  point group:

     freq (   1-   2) =        126.2  [cm-1]   --> E    G_5 D_5       
     freq (   3-   3) =        235.4  [cm-1]   --> A_1  G_1 D_1       
     freq (   4-   5) =        462.3  [cm-1]   --> E    G_5 D_5       
     freq (   6-   6) =        482.9  [cm-1]   --> B_2  G_4 D_2'      

     Calculation of q =    0.5303301  -0.5303301  -0.1767767

     G-vector sticks info
     --------------------
     sticks:   dense  smooth     PW     G-vecs:    dense   smooth      PW
     Sum         877     439    169                17261     6183    1471

     Using Slab Decomposition


     Title: 
     phonons of Si mesh                                                         


     bravais-lattice index     =            0
     lattice parameter (alat)  =       7.3077  a.u.
     unit-cell volume          =     275.9486 (a.u.)^3
     number of atoms/cell      =            2
     number of atomic types    =            1
     number of electrons       =         8.00
     number of Kohn-Sham states=            4
     kinetic-energy cutoff     =      30.0000  Ry
     charge density cutoff     =     240.0000  Ry
     Exchange-correlation= PBE
                           (   1   4   3   4   0   0   0)

     celldm(1)=   7.307706  celldm(2)=   0.000000  celldm(3)=   0.000000
     celldm(4)=   0.000000  celldm(5)=   0.000000  celldm(6)=   0.000000

     crystal axes: (cart. coord. in units of alat)
               a(1) = (   0.707107   0.707107   0.000000 )  
               a(2) = (   0.707107   0.000000   0.707107 )  
               a(3) = (   0.000000   0.707107   0.707107 )  

     reciprocal axes: (cart. coord. in units 2 pi/alat)
               b(1) = (  0.707107  0.707107 -0.707107 )  
               b(2) = (  0.707107 -0.707107  0.707107 )  
               b(3) = ( -0.707107  0.707107  0.707107 )  


     PseudoPot. # 1 for Si read from file:
     ./pseudo/Si.pbe-n-rrkjus_psl.1.0.0.UPF
     MD5 check sum: 0b0bb1205258b0d07b9f9672cf965d36
     Pseudo is Ultrasoft + core correction, Zval =  4.0
     Generated using "atomic" code by A. Dal Corso  v.5.1
     Using radial grid of 1141 points,  6 beta functions with: 
                l(1) =   0
                l(2) =   0
                l(3) =   1
                l(4) =   1
                l(5) =   2
                l(6) =   2
     Q(r) pseudized with 0 coefficients 


     atomic species   valence    mass     pseudopotential
        Si             4.00    28.08550     Si( 1.00)

     48 Sym. Ops., with inversion, found



   Cartesian axes

     site n.     atom                  positions (alat units)
         1           Si  tau(   1) = (   0.0000000   0.0000000   0.0000000  )
         2           Si  tau(   2) = (   0.3535534   0.3535534   0.3535534  )

     number of k points=   576

     Number of k-points >= 100: set verbosity='high' to print them.

     Dense  grid:    17261 G-vectors     FFT dimensions: (  40,  40,  40)

     Smooth grid:     6183 G-vectors     FFT dimensions: (  32,  32,  32)

     Estimated max dynamical RAM per process >      57.80 MB

     The potential is recalculated from file :
     ./_ph0/si.save/charge-density

     Starting wfcs are    8 atomic wfcs

     Band Structure Calculation
     Davidson diagonalization with overlap

     ethr =  1.25E-10,  avg # of iterations = 13.0

     total cpu time spent up to now is       40.1 secs

     End of band structure calculation

     Number of k-points >= 100: set verbosity='high' to print the bands.

     highest occupied level (ev):     5.9865

     Writing output data file ./_ph0/si.save/

     phonons of Si mesh                                                         

     bravais-lattice index     =            0
     lattice parameter (alat)  =       7.3077  a.u.
     unit-cell volume          =     275.9486 (a.u.)^3
     number of atoms/cell      =            2
     number of atomic types    =            1
     kinetic-energy cut-off    =      30.0000  Ry
     charge density cut-off    =     240.0000  Ry
     convergence threshold     =      1.0E-16
     beta                      =       0.5000
     number of iterations used =            4
     Exchange-correlation= PBE
                           (   1   4   3   4   0   0   0)


     celldm(1)=    7.30771  celldm(2)=    0.00000  celldm(3)=    0.00000
     celldm(4)=    0.00000  celldm(5)=    0.00000  celldm(6)=    0.00000

     crystal axes: (cart. coord. in units of alat)
               a(1) = (  0.7071  0.7071  0.0000 )  
               a(2) = (  0.7071  0.0000  0.7071 )  
               a(3) = (  0.0000  0.7071  0.7071 )  

     reciprocal axes: (cart. coord. in units 2 pi/alat)
               b(1) = (  0.7071  0.7071 -0.7071 )  
               b(2) = (  0.7071 -0.7071  0.7071 )  
               b(3) = ( -0.7071  0.7071  0.7071 )  


     Atoms inside the unit cell: 

     Cartesian axes

     site n.  atom      mass           positions (alat units)
        1     Si  28.0855   tau(    1) = (    0.00000    0.00000    0.00000  )
        2     Si  28.0855   tau(    2) = (    0.35355    0.35355    0.35355  )

     Computing dynamical matrix for 
                    q = (   0.5303301  -0.5303301  -0.1767767 )

      2 Sym.Ops. (no q -> -q+G )


     G cutoff =  324.6487  (  17261 G-vectors)     FFT grid: ( 40, 40, 40)
     G cutoff =  162.3244  (   6183 G-vectors)  smooth grid: ( 32, 32, 32)
     number of k points=   576

     PseudoPot. # 1 for Si read from file:
     ./pseudo/Si.pbe-n-rrkjus_psl.1.0.0.UPF
     MD5 check sum: 0b0bb1205258b0d07b9f9672cf965d36
     Pseudo is Ultrasoft + core correction, Zval =  4.0
     Generated using "atomic" code by A. Dal Corso  v.5.1
     Using radial grid of 1141 points,  6 beta functions with: 
                l(1) =   0
                l(2) =   0
                l(3) =   1
                l(4) =   1
                l(5) =   2
                l(6) =   2
     Q(r) pseudized with 0 coefficients 


     Mode symmetry, C_s (m)     point group:


     Atomic displacements:
     There are    6 irreducible representations

     Representation     1      1 modes -  To be done

     Representation     2      1 modes -  To be done

     Representation     3      1 modes -  To be done

     Representation     4      1 modes -  To be done

     Representation     5      1 modes -  To be done

     Representation     6      1 modes -  To be done



     Alpha used in Ewald sum =   2.5000
     PHONON       :   9m11.50s CPU   9m17.92s WALL



     Representation #   1 mode #   1

     Self-consistent Calculation

      iter #   1 total cpu time :   564.9 secs   av.it.:   6.2
      thresh= 1.000E-02 alpha_mix =  0.500 |ddv_scf|^2 =  1.532E-05

      iter #   2 total cpu time :   574.4 secs   av.it.:   9.6
      thresh= 3.915E-04 alpha_mix =  0.500 |ddv_scf|^2 =  1.318E-05

      iter #   3 total cpu time :   582.7 secs   av.it.:   8.9
      thresh= 3.630E-04 alpha_mix =  0.500 |ddv_scf|^2 =  5.446E-08

      iter #   4 total cpu time :   590.8 secs   av.it.:   9.4
      thresh= 2.334E-05 alpha_mix =  0.500 |ddv_scf|^2 =  7.565E-09

      iter #   5 total cpu time :   598.4 secs   av.it.:   9.6
      thresh= 8.698E-06 alpha_mix =  0.500 |ddv_scf|^2 =  1.029E-10

      iter #   6 total cpu time :   606.5 secs   av.it.:   9.7
      thresh= 1.015E-06 alpha_mix =  0.500 |ddv_scf|^2 =  3.132E-12

      iter #   7 total cpu time :   615.5 secs   av.it.:   9.9
      thresh= 1.770E-07 alpha_mix =  0.500 |ddv_scf|^2 =  5.437E-13

      iter #   8 total cpu time :   625.1 secs   av.it.:  10.3
      thresh= 7.373E-08 alpha_mix =  0.500 |ddv_scf|^2 =  2.373E-14

      iter #   9 total cpu time :   633.0 secs   av.it.:   9.8
      thresh= 1.540E-08 alpha_mix =  0.500 |ddv_scf|^2 =  7.746E-15

      iter #  10 total cpu time :   641.8 secs   av.it.:   9.3
      thresh= 8.801E-09 alpha_mix =  0.500 |ddv_scf|^2 =  1.163E-15

      iter #  11 total cpu time :   649.9 secs   av.it.:   9.8
      thresh= 3.411E-09 alpha_mix =  0.500 |ddv_scf|^2 =  6.369E-17

     End of self-consistent calculation

     Convergence has been achieved 


     Representation #   2 mode #   2

     Self-consistent Calculation

      iter #   1 total cpu time :   655.8 secs   av.it.:   6.1
      thresh= 1.000E-02 alpha_mix =  0.500 |ddv_scf|^2 =  1.040E-05

      iter #   2 total cpu time :   663.7 secs   av.it.:   9.6
      thresh= 3.225E-04 alpha_mix =  0.500 |ddv_scf|^2 =  8.874E-06

      iter #   3 total cpu time :   671.9 secs   av.it.:   8.8
      thresh= 2.979E-04 alpha_mix =  0.500 |ddv_scf|^2 =  4.100E-08

      iter #   4 total cpu time :   680.1 secs   av.it.:   9.5
      thresh= 2.025E-05 alpha_mix =  0.500 |ddv_scf|^2 =  7.039E-09

      iter #   5 total cpu time :   687.7 secs   av.it.:   9.6
      thresh= 8.390E-06 alpha_mix =  0.500 |ddv_scf|^2 =  2.486E-10

      iter #   6 total cpu time :   696.3 secs   av.it.:   9.7
      thresh= 1.577E-06 alpha_mix =  0.500 |ddv_scf|^2 =  4.847E-12

      iter #   7 total cpu time :   705.3 secs   av.it.:   9.8
      thresh= 2.202E-07 alpha_mix =  0.500 |ddv_scf|^2 =  5.944E-13

      iter #   8 total cpu time :   714.6 secs   av.it.:  10.2
      thresh= 7.710E-08 alpha_mix =  0.500 |ddv_scf|^2 =  8.081E-14

      iter #   9 total cpu time :   723.7 secs   av.it.:   9.9
      thresh= 2.843E-08 alpha_mix =  0.500 |ddv_scf|^2 =  1.919E-14

      iter #  10 total cpu time :   733.0 secs   av.it.:   9.2
      thresh= 1.385E-08 alpha_mix =  0.500 |ddv_scf|^2 =  9.771E-16

      iter #  11 total cpu time :   742.6 secs   av.it.:   9.7
      thresh= 3.126E-09 alpha_mix =  0.500 |ddv_scf|^2 =  1.302E-16

      iter #  12 total cpu time :   751.4 secs   av.it.:   9.8
      thresh= 1.141E-09 alpha_mix =  0.500 |ddv_scf|^2 =  3.649E-17

     End of self-consistent calculation

     Convergence has been achieved 


     Representation #   3 mode #   3

     Self-consistent Calculation

      iter #   1 total cpu time :   758.2 secs   av.it.:   6.0
      thresh= 1.000E-02 alpha_mix =  0.500 |ddv_scf|^2 =  7.875E-06

      iter #   2 total cpu time :   767.1 secs   av.it.:   9.6
      thresh= 2.806E-04 alpha_mix =  0.500 |ddv_scf|^2 =  5.835E-06

      iter #   3 total cpu time :   775.1 secs   av.it.:   8.9
      thresh= 2.416E-04 alpha_mix =  0.500 |ddv_scf|^2 =  6.359E-08

      iter #   4 total cpu time :   783.4 secs   av.it.:   9.3
      thresh= 2.522E-05 alpha_mix =  0.500 |ddv_scf|^2 =  7.434E-09

      iter #   5 total cpu time :   791.5 secs   av.it.:   9.6
      thresh= 8.622E-06 alpha_mix =  0.500 |ddv_scf|^2 =  3.538E-10

      iter #   6 total cpu time :   799.3 secs   av.it.:   9.7
      thresh= 1.881E-06 alpha_mix =  0.500 |ddv_scf|^2 =  3.996E-12

      iter #   7 total cpu time :   807.4 secs   av.it.:   9.9
      thresh= 1.999E-07 alpha_mix =  0.500 |ddv_scf|^2 =  6.557E-13

      iter #   8 total cpu time :   817.0 secs   av.it.:  10.3
      thresh= 8.098E-08 alpha_mix =  0.500 |ddv_scf|^2 =  1.848E-14

      iter #   9 total cpu time :   825.9 secs   av.it.:   9.8
      thresh= 1.359E-08 alpha_mix =  0.500 |ddv_scf|^2 =  4.045E-15

      iter #  10 total cpu time :   834.9 secs   av.it.:   9.5
      thresh= 6.360E-09 alpha_mix =  0.500 |ddv_scf|^2 =  1.246E-15

      iter #  11 total cpu time :   843.7 secs   av.it.:   9.6
      thresh= 3.530E-09 alpha_mix =  0.500 |ddv_scf|^2 =  4.772E-17

     End of self-consistent calculation

     Convergence has been achieved 


     Representation #   4 mode #   4

     Self-consistent Calculation

      iter #   1 total cpu time :   850.5 secs   av.it.:   5.8
      thresh= 1.000E-02 alpha_mix =  0.500 |ddv_scf|^2 =  2.950E-06

      iter #   2 total cpu time :   859.4 secs   av.it.:   9.8
      thresh= 1.717E-04 alpha_mix =  0.500 |ddv_scf|^2 =  1.535E-06

      iter #   3 total cpu time :   866.6 secs   av.it.:   9.0
      thresh= 1.239E-04 alpha_mix =  0.500 |ddv_scf|^2 =  5.841E-08

      iter #   4 total cpu time :   874.9 secs   av.it.:   9.4
      thresh= 2.417E-05 alpha_mix =  0.500 |ddv_scf|^2 =  6.674E-09

      iter #   5 total cpu time :   883.8 secs   av.it.:   9.6
      thresh= 8.170E-06 alpha_mix =  0.500 |ddv_scf|^2 =  4.168E-10

      iter #   6 total cpu time :   892.8 secs   av.it.:   9.7
      thresh= 2.042E-06 alpha_mix =  0.500 |ddv_scf|^2 =  5.828E-12

      iter #   7 total cpu time :   902.0 secs   av.it.:   9.8
      thresh= 2.414E-07 alpha_mix =  0.500 |ddv_scf|^2 =  7.025E-13

      iter #   8 total cpu time :   912.1 secs   av.it.:  10.2
      thresh= 8.382E-08 alpha_mix =  0.500 |ddv_scf|^2 =  3.936E-14

      iter #   9 total cpu time :   921.6 secs   av.it.:  10.1
      thresh= 1.984E-08 alpha_mix =  0.500 |ddv_scf|^2 =  5.186E-15

      iter #  10 total cpu time :   931.0 secs   av.it.:   9.5
      thresh= 7.201E-09 alpha_mix =  0.500 |ddv_scf|^2 =  1.078E-15

      iter #  11 total cpu time :   938.6 secs   av.it.:   9.5
      thresh= 3.283E-09 alpha_mix =  0.500 |ddv_scf|^2 =  9.296E-17

     End of self-consistent calculation

     Convergence has been achieved 


     Representation #   5 mode #   5

     Self-consistent Calculation

      iter #   1 total cpu time :   944.2 secs   av.it.:   5.5
      thresh= 1.000E-02 alpha_mix =  0.500 |ddv_scf|^2 =  5.418E-07

      iter #   2 total cpu time :   952.2 secs   av.it.:   9.5
      thresh= 7.361E-05 alpha_mix =  0.500 |ddv_scf|^2 =  3.702E-08

      iter #   3 total cpu time :   960.6 secs   av.it.:   8.9
      thresh= 1.924E-05 alpha_mix =  0.500 |ddv_scf|^2 =  7.579E-09

      iter #   4 total cpu time :   968.6 secs   av.it.:   9.3
      thresh= 8.706E-06 alpha_mix =  0.500 |ddv_scf|^2 =  9.215E-12

      iter #   5 total cpu time :   978.4 secs   av.it.:  10.1
      thresh= 3.036E-07 alpha_mix =  0.500 |ddv_scf|^2 =  2.148E-13

      iter #   6 total cpu time :   987.3 secs   av.it.:   9.6
      thresh= 4.635E-08 alpha_mix =  0.500 |ddv_scf|^2 =  1.823E-14

      iter #   7 total cpu time :   995.1 secs   av.it.:   9.8
      thresh= 1.350E-08 alpha_mix =  0.500 |ddv_scf|^2 =  4.430E-16

      iter #   8 total cpu time :  1003.7 secs   av.it.:  10.1
      thresh= 2.105E-09 alpha_mix =  0.500 |ddv_scf|^2 =  1.206E-17

     End of self-consistent calculation

     Convergence has been achieved 


     Representation #   6 mode #   6

     Self-consistent Calculation

      iter #   1 total cpu time :  1009.5 secs   av.it.:   5.5
      thresh= 1.000E-02 alpha_mix =  0.500 |ddv_scf|^2 =  5.418E-07

      iter #   2 total cpu time :  1018.2 secs   av.it.:   9.5
      thresh= 7.360E-05 alpha_mix =  0.500 |ddv_scf|^2 =  3.702E-08

      iter #   3 total cpu time :  1025.3 secs   av.it.:   8.9
      thresh= 1.924E-05 alpha_mix =  0.500 |ddv_scf|^2 =  7.578E-09

      iter #   4 total cpu time :  1033.3 secs   av.it.:   9.3
      thresh= 8.705E-06 alpha_mix =  0.500 |ddv_scf|^2 =  9.215E-12

      iter #   5 total cpu time :  1042.6 secs   av.it.:  10.1
      thresh= 3.036E-07 alpha_mix =  0.500 |ddv_scf|^2 =  2.148E-13

      iter #   6 total cpu time :  1051.5 secs   av.it.:   9.6
      thresh= 4.635E-08 alpha_mix =  0.500 |ddv_scf|^2 =  1.824E-14

      iter #   7 total cpu time :  1060.6 secs   av.it.:   9.8
      thresh= 1.351E-08 alpha_mix =  0.500 |ddv_scf|^2 =  4.432E-16

      iter #   8 total cpu time :  1069.9 secs   av.it.:  10.1
      thresh= 2.105E-09 alpha_mix =  0.500 |ddv_scf|^2 =  1.206E-17

     End of self-consistent calculation

     Convergence has been achieved 

     Number of q in the star =   24
     List of q in the star:
          1   0.530330086  -0.530330086  -0.176776695
          2  -0.530330086   0.530330086  -0.176776695
          3  -0.530330086  -0.530330086  -0.176776695
          4   0.530330086   0.530330086  -0.176776695
          5  -0.530330086   0.176776695   0.530330086
          6  -0.176776695   0.530330086   0.530330086
          7   0.530330086   0.530330086   0.176776695
          8  -0.530330086  -0.530330086   0.176776695
          9   0.176776695  -0.530330086  -0.530330086
         10  -0.530330086  -0.176776695   0.530330086
         11   0.530330086  -0.530330086   0.176776695
         12  -0.530330086   0.176776695  -0.530330086
         13   0.530330086   0.176776695   0.530330086
         14  -0.176776695   0.530330086  -0.530330086
         15  -0.176776695  -0.530330086   0.530330086
         16   0.176776695   0.530330086   0.530330086
         17   0.530330086  -0.176776695  -0.530330086
         18  -0.530330086  -0.176776695  -0.530330086
         19   0.530330086  -0.176776695   0.530330086
         20  -0.530330086   0.530330086   0.176776695
         21   0.176776695   0.530330086  -0.530330086
         22   0.530330086   0.176776695  -0.530330086
         23  -0.176776695  -0.530330086  -0.530330086
         24   0.176776695  -0.530330086   0.530330086

     Diagonalizing the dynamical matrix

     q = (    0.530330086  -0.530330086  -0.176776695 ) 

 **************************************************************************
     freq (    1) =       4.221096 [THz] =     140.800611 [cm-1]
     freq (    2) =       5.875250 [THz] =     195.977238 [cm-1]
     freq (    3) =       9.370997 [THz] =     312.582810 [cm-1]
     freq (    4) =      12.089539 [THz] =     403.263612 [cm-1]
     freq (    5) =      13.618005 [THz] =     454.247747 [cm-1]
     freq (    6) =      14.024139 [THz] =     467.794926 [cm-1]
 **************************************************************************

     Mode symmetry, C_s (m)     point group:

     freq (   1-   1) =        140.8  [cm-1]   --> A''                
     freq (   2-   2) =        196.0  [cm-1]   --> A'                 
     freq (   3-   3) =        312.6  [cm-1]   --> A'                 
     freq (   4-   4) =        403.3  [cm-1]   --> A'                 
     freq (   5-   5) =        454.2  [cm-1]   --> A''                
     freq (   6-   6) =        467.8  [cm-1]   --> A'                 

     Calculation of q =    0.3535534  -0.3535534   0.0000000

     G-vector sticks info
     --------------------
     sticks:   dense  smooth     PW     G-vecs:    dense   smooth      PW
     Sum         877     439    163                17261     6183    1411

     Using Slab Decomposition


     Title: 
     phonons of Si mesh                                                         


     bravais-lattice index     =            0
     lattice parameter (alat)  =       7.3077  a.u.
     unit-cell volume          =     275.9486 (a.u.)^3
     number of atoms/cell      =            2
     number of atomic types    =            1
     number of electrons       =         8.00
     number of Kohn-Sham states=            4
     kinetic-energy cutoff     =      30.0000  Ry
     charge density cutoff     =     240.0000  Ry
     Exchange-correlation= PBE
                           (   1   4   3   4   0   0   0)

     celldm(1)=   7.307706  celldm(2)=   0.000000  celldm(3)=   0.000000
     celldm(4)=   0.000000  celldm(5)=   0.000000  celldm(6)=   0.000000

     crystal axes: (cart. coord. in units of alat)
               a(1) = (   0.707107   0.707107   0.000000 )  
               a(2) = (   0.707107   0.000000   0.707107 )  
               a(3) = (   0.000000   0.707107   0.707107 )  

     reciprocal axes: (cart. coord. in units 2 pi/alat)
               b(1) = (  0.707107  0.707107 -0.707107 )  
               b(2) = (  0.707107 -0.707107  0.707107 )  
               b(3) = ( -0.707107  0.707107  0.707107 )  


     PseudoPot. # 1 for Si read from file:
     ./pseudo/Si.pbe-n-rrkjus_psl.1.0.0.UPF
     MD5 check sum: 0b0bb1205258b0d07b9f9672cf965d36
     Pseudo is Ultrasoft + core correction, Zval =  4.0
     Generated using "atomic" code by A. Dal Corso  v.5.1
     Using radial grid of 1141 points,  6 beta functions with: 
                l(1) =   0
                l(2) =   0
                l(3) =   1
                l(4) =   1
                l(5) =   2
                l(6) =   2
     Q(r) pseudized with 0 coefficients 


     atomic species   valence    mass     pseudopotential
        Si             4.00    28.08550     Si( 1.00)

     48 Sym. Ops., with inversion, found



   Cartesian axes

     site n.     atom                  positions (alat units)
         1           Si  tau(   1) = (   0.0000000   0.0000000   0.0000000  )
         2           Si  tau(   2) = (   0.3535534   0.3535534   0.3535534  )

     number of k points=   328

     Number of k-points >= 100: set verbosity='high' to print them.

     Dense  grid:    17261 G-vectors     FFT dimensions: (  40,  40,  40)

     Smooth grid:     6183 G-vectors     FFT dimensions: (  32,  32,  32)

     Estimated max dynamical RAM per process >      57.78 MB

     The potential is recalculated from file :
     ./_ph0/si.save/charge-density

     Starting wfcs are    8 atomic wfcs

     Band Structure Calculation
     Davidson diagonalization with overlap

     ethr =  1.25E-10,  avg # of iterations = 12.9

     total cpu time spent up to now is       51.6 secs

     End of band structure calculation

     Number of k-points >= 100: set verbosity='high' to print the bands.

     highest occupied level (ev):     5.9865

     Writing output data file ./_ph0/si.save/

     phonons of Si mesh                                                         

     bravais-lattice index     =            0
     lattice parameter (alat)  =       7.3077  a.u.
     unit-cell volume          =     275.9486 (a.u.)^3
     number of atoms/cell      =            2
     number of atomic types    =            1
     kinetic-energy cut-off    =      30.0000  Ry
     charge density cut-off    =     240.0000  Ry
     convergence threshold     =      1.0E-16
     beta                      =       0.5000
     number of iterations used =            4
     Exchange-correlation= PBE
                           (   1   4   3   4   0   0   0)


     celldm(1)=    7.30771  celldm(2)=    0.00000  celldm(3)=    0.00000
     celldm(4)=    0.00000  celldm(5)=    0.00000  celldm(6)=    0.00000

     crystal axes: (cart. coord. in units of alat)
               a(1) = (  0.7071  0.7071  0.0000 )  
               a(2) = (  0.7071  0.0000  0.7071 )  
               a(3) = (  0.0000  0.7071  0.7071 )  

     reciprocal axes: (cart. coord. in units 2 pi/alat)
               b(1) = (  0.7071  0.7071 -0.7071 )  
               b(2) = (  0.7071 -0.7071  0.7071 )  
               b(3) = ( -0.7071  0.7071  0.7071 )  


     Atoms inside the unit cell: 

     Cartesian axes

     site n.  atom      mass           positions (alat units)
        1     Si  28.0855   tau(    1) = (    0.00000    0.00000    0.00000  )
        2     Si  28.0855   tau(    2) = (    0.35355    0.35355    0.35355  )

     Computing dynamical matrix for 
                    q = (   0.3535534  -0.3535534   0.0000000 )

      4 Sym.Ops. (no q -> -q+G )


     G cutoff =  324.6487  (  17261 G-vectors)     FFT grid: ( 40, 40, 40)
     G cutoff =  162.3244  (   6183 G-vectors)  smooth grid: ( 32, 32, 32)
     number of k points=   328

     PseudoPot. # 1 for Si read from file:
     ./pseudo/Si.pbe-n-rrkjus_psl.1.0.0.UPF
     MD5 check sum: 0b0bb1205258b0d07b9f9672cf965d36
     Pseudo is Ultrasoft + core correction, Zval =  4.0
     Generated using "atomic" code by A. Dal Corso  v.5.1
     Using radial grid of 1141 points,  6 beta functions with: 
                l(1) =   0
                l(2) =   0
                l(3) =   1
                l(4) =   1
                l(5) =   2
                l(6) =   2
     Q(r) pseudized with 0 coefficients 


     Mode symmetry, C_2v (mm2)  point group:


     Atomic displacements:
     There are    6 irreducible representations

     Representation     1      1 modes -  To be done

     Representation     2      1 modes -  To be done

     Representation     3      1 modes -  To be done

     Representation     4      1 modes -  To be done

     Representation     5      1 modes -  To be done

     Representation     6      1 modes -  To be done



     Alpha used in Ewald sum =   2.5000
     PHONON       :  17m53.33s CPU  18m 5.82s WALL



     Representation #   1 mode #   1

     Self-consistent Calculation

      iter #   1 total cpu time :  1089.6 secs   av.it.:   5.8
      thresh= 1.000E-02 alpha_mix =  0.500 |ddv_scf|^2 =  8.954E-06

      iter #   2 total cpu time :  1094.1 secs   av.it.:   9.3
      thresh= 2.992E-04 alpha_mix =  0.500 |ddv_scf|^2 =  1.449E-05

      iter #   3 total cpu time :  1098.2 secs   av.it.:   8.3
      thresh= 3.806E-04 alpha_mix =  0.500 |ddv_scf|^2 =  3.998E-08

      iter #   4 total cpu time :  1102.6 secs   av.it.:   9.1
      thresh= 1.999E-05 alpha_mix =  0.500 |ddv_scf|^2 =  5.726E-09

      iter #   5 total cpu time :  1107.1 secs   av.it.:   9.3
      thresh= 7.567E-06 alpha_mix =  0.500 |ddv_scf|^2 =  2.018E-11

      iter #   6 total cpu time :  1112.4 secs   av.it.:   9.8
      thresh= 4.492E-07 alpha_mix =  0.500 |ddv_scf|^2 =  1.132E-12

      iter #   7 total cpu time :  1117.9 secs   av.it.:  10.0
      thresh= 1.064E-07 alpha_mix =  0.500 |ddv_scf|^2 =  2.391E-13

      iter #   8 total cpu time :  1122.8 secs   av.it.:   9.1
      thresh= 4.889E-08 alpha_mix =  0.500 |ddv_scf|^2 =  9.924E-14

      iter #   9 total cpu time :  1127.7 secs   av.it.:   9.1
      thresh= 3.150E-08 alpha_mix =  0.500 |ddv_scf|^2 =  6.981E-15

      iter #  10 total cpu time :  1132.5 secs   av.it.:   9.2
      thresh= 8.355E-09 alpha_mix =  0.500 |ddv_scf|^2 =  8.876E-16

      iter #  11 total cpu time :  1137.3 secs   av.it.:   9.1
      thresh= 2.979E-09 alpha_mix =  0.500 |ddv_scf|^2 =  4.826E-17

     End of self-consistent calculation

     Convergence has been achieved 


     Representation #   2 mode #   2

     Self-consistent Calculation

      iter #   1 total cpu time :  1141.5 secs   av.it.:   6.4
      thresh= 1.000E-02 alpha_mix =  0.500 |ddv_scf|^2 =  6.644E-05

      iter #   2 total cpu time :  1146.2 secs   av.it.:   9.1
      thresh= 8.151E-04 alpha_mix =  0.500 |ddv_scf|^2 =  1.218E-04

      iter #   3 total cpu time :  1150.0 secs   av.it.:   8.2
      thresh= 1.103E-03 alpha_mix =  0.500 |ddv_scf|^2 =  2.752E-08

      iter #   4 total cpu time :  1154.8 secs   av.it.:   9.1
      thresh= 1.659E-05 alpha_mix =  0.500 |ddv_scf|^2 =  6.058E-09

      iter #   5 total cpu time :  1159.2 secs   av.it.:   9.2
      thresh= 7.783E-06 alpha_mix =  0.500 |ddv_scf|^2 =  1.236E-11

      iter #   6 total cpu time :  1163.5 secs   av.it.:   9.5
      thresh= 3.515E-07 alpha_mix =  0.500 |ddv_scf|^2 =  1.426E-12

      iter #   7 total cpu time :  1168.1 secs   av.it.:  10.1
      thresh= 1.194E-07 alpha_mix =  0.500 |ddv_scf|^2 =  5.641E-14

      iter #   8 total cpu time :  1172.5 secs   av.it.:   9.7
      thresh= 2.375E-08 alpha_mix =  0.500 |ddv_scf|^2 =  5.315E-14

      iter #   9 total cpu time :  1176.4 secs   av.it.:   8.4
      thresh= 2.305E-08 alpha_mix =  0.500 |ddv_scf|^2 =  2.965E-15

      iter #  10 total cpu time :  1180.7 secs   av.it.:   9.5
      thresh= 5.445E-09 alpha_mix =  0.500 |ddv_scf|^2 =  2.446E-16

      iter #  11 total cpu time :  1184.9 secs   av.it.:   9.2
      thresh= 1.564E-09 alpha_mix =  0.500 |ddv_scf|^2 =  1.810E-16

      iter #  12 total cpu time :  1189.1 secs   av.it.:   9.1
      thresh= 1.345E-09 alpha_mix =  0.500 |ddv_scf|^2 =  6.299E-18

     End of self-consistent calculation

     Convergence has been achieved 


     Representation #   3 mode #   3

     Self-consistent Calculation

      iter #   1 total cpu time :  1192.3 secs   av.it.:   5.5
      thresh= 1.000E-02 alpha_mix =  0.500 |ddv_scf|^2 =  5.118E-07

      iter #   2 total cpu time :  1196.5 secs   av.it.:   9.3
      thresh= 7.154E-05 alpha_mix =  0.500 |ddv_scf|^2 =  3.824E-08

      iter #   3 total cpu time :  1200.5 secs   av.it.:   8.6
      thresh= 1.955E-05 alpha_mix =  0.500 |ddv_scf|^2 =  6.587E-09

      iter #   4 total cpu time :  1205.3 secs   av.it.:   9.0
      thresh= 8.116E-06 alpha_mix =  0.500 |ddv_scf|^2 =  5.501E-12

      iter #   5 total cpu time :  1209.7 secs   av.it.:   9.7
      thresh= 2.345E-07 alpha_mix =  0.500 |ddv_scf|^2 =  1.879E-13

      iter #   6 total cpu time :  1214.0 secs   av.it.:   9.4
      thresh= 4.334E-08 alpha_mix =  0.500 |ddv_scf|^2 =  1.312E-14

      iter #   7 total cpu time :  1218.7 secs   av.it.:   9.5
      thresh= 1.145E-08 alpha_mix =  0.500 |ddv_scf|^2 =  2.679E-16

      iter #   8 total cpu time :  1223.5 secs   av.it.:   9.2
      thresh= 1.637E-09 alpha_mix =  0.500 |ddv_scf|^2 =  4.720E-17

     End of self-consistent calculation

     Convergence has been achieved 


     Representation #   4 mode #   4

     Self-consistent Calculation

      iter #   1 total cpu time :  1227.1 secs   av.it.:   4.9
      thresh= 1.000E-02 alpha_mix =  0.500 |ddv_scf|^2 =  2.108E-07

      iter #   2 total cpu time :  1232.0 secs   av.it.:   9.3
      thresh= 4.592E-05 alpha_mix =  0.500 |ddv_scf|^2 =  4.334E-08

      iter #   3 total cpu time :  1237.0 secs   av.it.:   9.3
      thresh= 2.082E-05 alpha_mix =  0.500 |ddv_scf|^2 =  7.828E-09

      iter #   4 total cpu time :  1242.0 secs   av.it.:   9.4
      thresh= 8.848E-06 alpha_mix =  0.500 |ddv_scf|^2 =  5.816E-11

      iter #   5 total cpu time :  1247.0 secs   av.it.:   9.5
      thresh= 7.626E-07 alpha_mix =  0.500 |ddv_scf|^2 =  3.128E-12

      iter #   6 total cpu time :  1252.2 secs   av.it.:  10.0
      thresh= 1.769E-07 alpha_mix =  0.500 |ddv_scf|^2 =  4.095E-14

      iter #   7 total cpu time :  1257.2 secs   av.it.:   9.4
      thresh= 2.024E-08 alpha_mix =  0.500 |ddv_scf|^2 =  6.906E-15

      iter #   8 total cpu time :  1262.2 secs   av.it.:   9.6
      thresh= 8.310E-09 alpha_mix =  0.500 |ddv_scf|^2 =  1.171E-16

      iter #   9 total cpu time :  1267.4 secs   av.it.:   9.6
      thresh= 1.082E-09 alpha_mix =  0.500 |ddv_scf|^2 =  1.620E-17

     End of self-consistent calculation

     Convergence has been achieved 


     Representation #   5 mode #   5

     Self-consistent Calculation

      iter #   1 total cpu time :  1271.4 secs   av.it.:   5.9
      thresh= 1.000E-02 alpha_mix =  0.500 |ddv_scf|^2 =  2.901E-06

      iter #   2 total cpu time :  1276.7 secs   av.it.:   9.6
      thresh= 1.703E-04 alpha_mix =  0.500 |ddv_scf|^2 =  3.626E-07

      iter #   3 total cpu time :  1282.0 secs   av.it.:   9.3
      thresh= 6.021E-05 alpha_mix =  0.500 |ddv_scf|^2 =  1.433E-08

      iter #   4 total cpu time :  1287.0 secs   av.it.:   9.1
      thresh= 1.197E-05 alpha_mix =  0.500 |ddv_scf|^2 =  2.263E-10

      iter #   5 total cpu time :  1291.5 secs   av.it.:   9.4
      thresh= 1.504E-06 alpha_mix =  0.500 |ddv_scf|^2 =  1.976E-12

      iter #   6 total cpu time :  1296.1 secs   av.it.:   9.8
      thresh= 1.406E-07 alpha_mix =  0.500 |ddv_scf|^2 =  8.254E-14

      iter #   7 total cpu time :  1300.7 secs   av.it.:   9.5
      thresh= 2.873E-08 alpha_mix =  0.500 |ddv_scf|^2 =  5.134E-15

      iter #   8 total cpu time :  1305.5 secs   av.it.:   9.8
      thresh= 7.165E-09 alpha_mix =  0.500 |ddv_scf|^2 =  1.600E-16

      iter #   9 total cpu time :  1310.6 secs   av.it.:   9.7
      thresh= 1.265E-09 alpha_mix =  0.500 |ddv_scf|^2 =  2.609E-17

     End of self-consistent calculation

     Convergence has been achieved 


     Representation #   6 mode #   6

     Self-consistent Calculation

      iter #   1 total cpu time :  1314.2 secs   av.it.:   5.0
[...]

      iter #   6 total cpu time :  1373.7 secs   av.it.:  10.1
      thresh= 1.912E-08 alpha_mix =  0.500 |ddv_scf|^2 =  1.821E-16

      iter #   7 total cpu time :  1377.8 secs   av.it.:  10.4
      thresh= 1.349E-09 alpha_mix =  0.500 |ddv_scf|^2 =  7.953E-19

     End of self-consistent calculation

     Convergence has been achieved 


     Representation #   2 modes #   3   4

     Self-consistent Calculation

      iter #   1 total cpu time :  1380.9 secs   av.it.:   6.0
      thresh= 1.000E-02 alpha_mix =  0.500 |ddv_scf|^2 =  2.105E-06

      iter #   2 total cpu time :  1384.4 secs   av.it.:  10.1
      thresh= 1.451E-04 alpha_mix =  0.500 |ddv_scf|^2 =  6.611E-07

      iter #   3 total cpu time :  1387.7 secs   av.it.:   9.7
      thresh= 8.131E-05 alpha_mix =  0.500 |ddv_scf|^2 =  4.275E-09

      iter #   4 total cpu time :  1391.2 secs   av.it.:   9.9
      thresh= 6.538E-06 alpha_mix =  0.500 |ddv_scf|^2 =  9.087E-11

      iter #   5 total cpu time :  1394.9 secs   av.it.:  10.1
      thresh= 9.532E-07 alpha_mix =  0.500 |ddv_scf|^2 =  8.816E-13

      iter #   6 total cpu time :  1399.0 secs   av.it.:  10.5
      thresh= 9.389E-08 alpha_mix =  0.500 |ddv_scf|^2 =  4.378E-14

      iter #   7 total cpu time :  1403.1 secs   av.it.:  10.3
      thresh= 2.092E-08 alpha_mix =  0.500 |ddv_scf|^2 =  3.318E-15

      iter #   8 total cpu time :  1407.2 secs   av.it.:  10.5
      thresh= 5.760E-09 alpha_mix =  0.500 |ddv_scf|^2 =  2.611E-17

     End of self-consistent calculation

     Convergence has been achieved 


     Representation #   3 modes #   5   6

     Self-consistent Calculation

      iter #   1 total cpu time :  1410.2 secs   av.it.:   5.8
      thresh= 1.000E-02 alpha_mix =  0.500 |ddv_scf|^2 =  3.698E-07

      iter #   2 total cpu time :  1414.2 secs   av.it.:  10.2
      thresh= 6.081E-05 alpha_mix =  0.500 |ddv_scf|^2 =  1.175E-08

      iter #   3 total cpu time :  1418.1 secs   av.it.:   9.6
      thresh= 1.084E-05 alpha_mix =  0.500 |ddv_scf|^2 =  2.589E-09

      iter #   4 total cpu time :  1422.0 secs   av.it.:   9.9
      thresh= 5.088E-06 alpha_mix =  0.500 |ddv_scf|^2 =  1.214E-12

      iter #   5 total cpu time :  1426.0 secs   av.it.:  10.1
      thresh= 1.102E-07 alpha_mix =  0.500 |ddv_scf|^2 =  6.122E-14

      iter #   6 total cpu time :  1430.0 secs   av.it.:  10.0
      thresh= 2.474E-08 alpha_mix =  0.500 |ddv_scf|^2 =  1.088E-15

      iter #   7 total cpu time :  1434.0 secs   av.it.:  10.4
      thresh= 3.299E-09 alpha_mix =  0.500 |ddv_scf|^2 =  3.006E-17

     End of self-consistent calculation

     Convergence has been achieved 

     Number of q in the star =    3
     List of q in the star:
          1   0.000000000   0.000000000  -0.707106781
          2   0.000000000  -0.707106781   0.000000000
          3  -0.707106781   0.000000000   0.000000000

     Diagonalizing the dynamical matrix

     q = (    0.000000000   0.000000000  -0.707106781 ) 

 **************************************************************************
     freq (    1) =       4.363548 [THz] =     145.552282 [cm-1]
     freq (    2) =       4.363548 [THz] =     145.552282 [cm-1]
     freq (    3) =      12.026587 [THz] =     401.163755 [cm-1]
     freq (    4) =      12.026587 [THz] =     401.163755 [cm-1]
     freq (    5) =      13.398755 [THz] =     446.934352 [cm-1]
     freq (    6) =      13.398755 [THz] =     446.934352 [cm-1]
 **************************************************************************

     Calculation of q =    0.0000000   0.3535534  -0.7071068

     G-vector sticks info
     --------------------
     sticks:   dense  smooth     PW     G-vecs:    dense   smooth      PW
     Sum         877     439    163                17261     6183    1459

     Using Slab Decomposition


     Title: 
     phonons of Si mesh                                                         


     bravais-lattice index     =            0
     lattice parameter (alat)  =       7.3077  a.u.
     unit-cell volume          =     275.9486 (a.u.)^3
     number of atoms/cell      =            2
     number of atomic types    =            1
     number of electrons       =         8.00
     number of Kohn-Sham states=            4
     kinetic-energy cutoff     =      30.0000  Ry
     charge density cutoff     =     240.0000  Ry
     Exchange-correlation= PBE
                           (   1   4   3   4   0   0   0)

     celldm(1)=   7.307706  celldm(2)=   0.000000  celldm(3)=   0.000000
     celldm(4)=   0.000000  celldm(5)=   0.000000  celldm(6)=   0.000000

     crystal axes: (cart. coord. in units of alat)
               a(1) = (   0.707107   0.707107   0.000000 )  
               a(2) = (   0.707107   0.000000   0.707107 )  
               a(3) = (   0.000000   0.707107   0.707107 )  

     reciprocal axes: (cart. coord. in units 2 pi/alat)
               b(1) = (  0.707107  0.707107 -0.707107 )  
               b(2) = (  0.707107 -0.707107  0.707107 )  
               b(3) = ( -0.707107  0.707107  0.707107 )  


     PseudoPot. # 1 for Si read from file:
     ./pseudo/Si.pbe-n-rrkjus_psl.1.0.0.UPF
     MD5 check sum: 0b0bb1205258b0d07b9f9672cf965d36
     Pseudo is Ultrasoft + core correction, Zval =  4.0
     Generated using "atomic" code by A. Dal Corso  v.5.1
     Using radial grid of 1141 points,  6 beta functions with: 
                l(1) =   0
                l(2) =   0
                l(3) =   1
                l(4) =   1
                l(5) =   2
                l(6) =   2
     Q(r) pseudized with 0 coefficients 


     atomic species   valence    mass     pseudopotential
        Si             4.00    28.08550     Si( 1.00)

     48 Sym. Ops., with inversion, found



   Cartesian axes

     site n.     atom                  positions (alat units)
         1           Si  tau(   1) = (   0.0000000   0.0000000   0.0000000  )
         2           Si  tau(   2) = (   0.3535534   0.3535534   0.3535534  )

     number of k points=   174

     Number of k-points >= 100: set verbosity='high' to print them.

     Dense  grid:    17261 G-vectors     FFT dimensions: (  40,  40,  40)

     Smooth grid:     6183 G-vectors     FFT dimensions: (  32,  32,  32)

     Estimated max dynamical RAM per process >      57.80 MB

     The potential is recalculated from file :
     ./_ph0/si.save/charge-density

     Starting wfcs are    8 atomic wfcs

     Band Structure Calculation
     Davidson diagonalization with overlap

     ethr =  1.25E-10,  avg # of iterations = 12.8

     total cpu time spent up to now is       62.3 secs

     End of band structure calculation

     Number of k-points >= 100: set verbosity='high' to print the bands.

     highest occupied level (ev):     5.9865

     Writing output data file ./_ph0/si.save/

     phonons of Si mesh                                                         

     bravais-lattice index     =            0
     lattice parameter (alat)  =       7.3077  a.u.
     unit-cell volume          =     275.9486 (a.u.)^3
     number of atoms/cell      =            2
     number of atomic types    =            1
     kinetic-energy cut-off    =      30.0000  Ry
     charge density cut-off    =     240.0000  Ry
     convergence threshold     =      1.0E-16
     beta                      =       0.5000
     number of iterations used =            4
     Exchange-correlation= PBE
                           (   1   4   3   4   0   0   0)


     celldm(1)=    7.30771  celldm(2)=    0.00000  celldm(3)=    0.00000
     celldm(4)=    0.00000  celldm(5)=    0.00000  celldm(6)=    0.00000

     crystal axes: (cart. coord. in units of alat)
               a(1) = (  0.7071  0.7071  0.0000 )  
               a(2) = (  0.7071  0.0000  0.7071 )  
               a(3) = (  0.0000  0.7071  0.7071 )  

     reciprocal axes: (cart. coord. in units 2 pi/alat)
               b(1) = (  0.7071  0.7071 -0.7071 )  
               b(2) = (  0.7071 -0.7071  0.7071 )  
               b(3) = ( -0.7071  0.7071  0.7071 )  


     Atoms inside the unit cell: 

     Cartesian axes

     site n.  atom      mass           positions (alat units)
        1     Si  28.0855   tau(    1) = (    0.00000    0.00000    0.00000  )
        2     Si  28.0855   tau(    2) = (    0.35355    0.35355    0.35355  )

     Computing dynamical matrix for 
                    q = (   0.0000000   0.3535534  -0.7071068 )

      8 Sym.Ops. (no q -> -q+G )


     G cutoff =  324.6487  (  17261 G-vectors)     FFT grid: ( 40, 40, 40)
     G cutoff =  162.3244  (   6183 G-vectors)  smooth grid: ( 32, 32, 32)
     number of k points=   174

     PseudoPot. # 1 for Si read from file:
     ./pseudo/Si.pbe-n-rrkjus_psl.1.0.0.UPF
     MD5 check sum: 0b0bb1205258b0d07b9f9672cf965d36
     Pseudo is Ultrasoft + core correction, Zval =  4.0
     Generated using "atomic" code by A. Dal Corso  v.5.1
     Using radial grid of 1141 points,  6 beta functions with: 
                l(1) =   0
                l(2) =   0
                l(3) =   1
                l(4) =   1
                l(5) =   2
                l(6) =   2
     Q(r) pseudized with 0 coefficients 



     Atomic displacements:
     There are    3 irreducible representations

     Representation     1      2 modes -  To be done

     Representation     2      2 modes -  To be done

     Representation     3      2 modes -  To be done



     Alpha used in Ewald sum =   2.5000
     PHONON       :  23m47.28s CPU  24m 3.42s WALL



     Representation #   1 modes #   1   2

     Self-consistent Calculation

      iter #   1 total cpu time :  1447.3 secs   av.it.:   5.4
      thresh= 1.000E-02 alpha_mix =  0.500 |ddv_scf|^2 =  2.554E-07

      iter #   2 total cpu time :  1453.1 secs   av.it.:  10.3
      thresh= 5.054E-05 alpha_mix =  0.500 |ddv_scf|^2 =  2.205E-08

      iter #   3 total cpu time :  1458.7 secs   av.it.:  10.1
      thresh= 1.485E-05 alpha_mix =  0.500 |ddv_scf|^2 =  2.997E-09

      iter #   4 total cpu time :  1464.3 secs   av.it.:  10.2
      thresh= 5.474E-06 alpha_mix =  0.500 |ddv_scf|^2 =  6.745E-12

      iter #   5 total cpu time :  1470.1 secs   av.it.:  10.7
      thresh= 2.597E-07 alpha_mix =  0.500 |ddv_scf|^2 =  1.524E-13

      iter #   6 total cpu time :  1475.9 secs   av.it.:  10.3
      thresh= 3.903E-08 alpha_mix =  0.500 |ddv_scf|^2 =  1.161E-14

      iter #   7 total cpu time :  1481.8 secs   av.it.:  10.6
      thresh= 1.078E-08 alpha_mix =  0.500 |ddv_scf|^2 =  1.943E-16

      iter #   8 total cpu time :  1487.5 secs   av.it.:  10.2
      thresh= 1.394E-09 alpha_mix =  0.500 |ddv_scf|^2 =  3.789E-17

     End of self-consistent calculation

     Convergence has been achieved 


     Representation #   2 modes #   3   4

     Self-consistent Calculation

      iter #   1 total cpu time :  1491.7 secs   av.it.:   5.8
      thresh= 1.000E-02 alpha_mix =  0.500 |ddv_scf|^2 =  1.229E-06

      iter #   2 total cpu time :  1496.7 secs   av.it.:  10.4
      thresh= 1.109E-04 alpha_mix =  0.500 |ddv_scf|^2 =  3.737E-07

      iter #   3 total cpu time :  1501.5 secs   av.it.:  10.0
      thresh= 6.113E-05 alpha_mix =  0.500 |ddv_scf|^2 =  4.054E-09

      iter #   4 total cpu time :  1506.3 secs   av.it.:  10.1
      thresh= 6.367E-06 alpha_mix =  0.500 |ddv_scf|^2 =  1.607E-11

      iter #   5 total cpu time :  1511.3 secs   av.it.:  10.4
      thresh= 4.009E-07 alpha_mix =  0.500 |ddv_scf|^2 =  5.646E-13

      iter #   6 total cpu time :  1516.6 secs   av.it.:  10.4
      thresh= 7.514E-08 alpha_mix =  0.500 |ddv_scf|^2 =  5.572E-14

      iter #   7 total cpu time :  1522.8 secs   av.it.:  10.5
      thresh= 2.361E-08 alpha_mix =  0.500 |ddv_scf|^2 =  7.124E-16

      iter #   8 total cpu time :  1528.8 secs   av.it.:  10.4
      thresh= 2.669E-09 alpha_mix =  0.500 |ddv_scf|^2 =  9.818E-17

     End of self-consistent calculation

     Convergence has been achieved 


     Representation #   3 modes #   5   6

     Self-consistent Calculation

      iter #   1 total cpu time :  1533.0 secs   av.it.:   6.1
      thresh= 1.000E-02 alpha_mix =  0.500 |ddv_scf|^2 =  8.589E-07

      iter #   2 total cpu time :  1538.0 secs   av.it.:  10.3
      thresh= 9.268E-05 alpha_mix =  0.500 |ddv_scf|^2 =  6.718E-08

      iter #   3 total cpu time :  1542.9 secs   av.it.:  10.1
      thresh= 2.592E-05 alpha_mix =  0.500 |ddv_scf|^2 =  3.333E-09

      iter #   4 total cpu time :  1547.7 secs   av.it.:  10.1
      thresh= 5.773E-06 alpha_mix =  0.500 |ddv_scf|^2 =  6.142E-12

      iter #   5 total cpu time :  1552.8 secs   av.it.:  10.7
      thresh= 2.478E-07 alpha_mix =  0.500 |ddv_scf|^2 =  2.575E-13

      iter #   6 total cpu time :  1558.0 secs   av.it.:  10.4
      thresh= 5.074E-08 alpha_mix =  0.500 |ddv_scf|^2 =  2.850E-14

      iter #   7 total cpu time :  1563.8 secs   av.it.:  10.3
      thresh= 1.688E-08 alpha_mix =  0.500 |ddv_scf|^2 =  3.115E-16

      iter #   8 total cpu time :  1569.6 secs   av.it.:  10.3
      thresh= 1.765E-09 alpha_mix =  0.500 |ddv_scf|^2 =  4.782E-17

     End of self-consistent calculation

     Convergence has been achieved 

     Number of q in the star =    6
     List of q in the star:
          1   0.000000000   0.353553391  -0.707106781
          2   0.000000000  -0.353553391   0.707106781
          3  -0.353553391   0.000000000   0.707106781
          4   0.353553391   0.000000000   0.707106781
          5  -0.707106781   0.000000000   0.353553391
          6  -0.707106781   0.000000000  -0.353553391

     Diagonalizing the dynamical matrix

     q = (    0.000000000   0.353553391  -0.707106781 ) 

 **************************************************************************
     freq (    1) =       6.017753 [THz] =     200.730632 [cm-1]
     freq (    2) =       6.017753 [THz] =     200.730632 [cm-1]
     freq (    3) =      10.343478 [THz] =     345.021294 [cm-1]
     freq (    4) =      10.343478 [THz] =     345.021294 [cm-1]
     freq (    5) =      13.587274 [THz] =     453.222682 [cm-1]
     freq (    6) =      13.587274 [THz] =     453.222682 [cm-1]
 **************************************************************************

     init_run     :      2.45s CPU      2.54s WALL (       7 calls)
     electrons    :     59.19s CPU     59.61s WALL (       7 calls)

     Called by init_run:
     wfcinit      :      0.00s CPU      0.00s WALL (       7 calls)
     potinit      :      0.22s CPU      0.22s WALL (       7 calls)
     hinit0       :      1.78s CPU      1.78s WALL (       7 calls)

     Called by electrons:
     c_bands      :     59.19s CPU     59.61s WALL (       7 calls)
     v_of_rho     :      0.24s CPU      0.25s WALL (       8 calls)
     newd         :      0.33s CPU      0.43s WALL (       8 calls)

     Called by c_bands:
     init_us_2    :      9.97s CPU     10.11s WALL (   51083 calls)
     cegterg      :     50.00s CPU     50.26s WALL (    1766 calls)

     Called by *egterg:
     cdiaghg      :      1.04s CPU      1.05s WALL (   24664 calls)
     h_psi        :    854.23s CPU    862.81s WALL (  584671 calls)
     s_psi        :    220.05s CPU    222.18s WALL ( 1193267 calls)
     g_psi        :      0.22s CPU      0.22s WALL (   22898 calls)

     Called by h_psi:
     h_psi:calbec :     97.29s CPU     98.21s WALL (  584671 calls)
     vloc_psi     :    645.64s CPU    652.27s WALL (  584671 calls)
     add_vuspsi   :    107.81s CPU    108.88s WALL (  584671 calls)

     General routines
     calbec       :    214.04s CPU    216.28s WALL ( 1291986 calls)
     fft          :     10.41s CPU     10.60s WALL (    8011 calls)
     ffts         :      1.24s CPU      1.27s WALL (    6802 calls)
     fftw         :    654.61s CPU    661.78s WALL ( 4935772 calls)
     interpolate  :      1.39s CPU      1.52s WALL (     916 calls)
     davcio       :      5.40s CPU      6.42s WALL (  246459 calls)

     Parallel routines

     PHONON       :  25m52.38s CPU  26m 9.85s WALL

     INITIALIZATION: 
     phq_setup    :      0.64s CPU      0.69s WALL (       8 calls)
     phq_init     :     26.26s CPU     26.46s WALL (       8 calls)

     phq_init     :     26.26s CPU     26.46s WALL (       8 calls)
     set_drhoc    :      3.78s CPU      3.79s WALL (      24 calls)
     init_vloc    :      0.01s CPU      0.01s WALL (       8 calls)
     init_us_1    :      2.03s CPU      2.04s WALL (       8 calls)
     newd         :      0.33s CPU      0.43s WALL (       8 calls)
     dvanqq       :      4.94s CPU      4.95s WALL (       8 calls)
     drho         :     13.75s CPU     13.87s WALL (       8 calls)

     DYNAMICAL MATRIX:
     dynmat0      :      4.32s CPU      4.36s WALL (       8 calls)
     phqscf       :   1434.08s CPU   1450.25s WALL (       8 calls)
     dynmatrix    :      0.00s CPU      0.01s WALL (       8 calls)

     phqscf       :   1434.08s CPU   1450.25s WALL (       8 calls)
     solve_linter :   1426.22s CPU   1442.23s WALL (      32 calls)
     drhodv       :      5.62s CPU      5.70s WALL (      32 calls)

     dynmat0      :      4.32s CPU      4.36s WALL (       8 calls)
     dynmat_us    :      1.62s CPU      1.66s WALL (       8 calls)
     d2ionq       :      0.04s CPU      0.04s WALL (       8 calls)
     dynmatcc     :      2.65s CPU      2.65s WALL (       8 calls)

     dynmat_us    :      1.62s CPU      1.66s WALL (       8 calls)
     addusdynmat  :      0.00s CPU      0.00s WALL (       8 calls)

     phqscf       :   1434.08s CPU   1450.25s WALL (       8 calls)
     solve_linter :   1426.22s CPU   1442.23s WALL (      32 calls)

     solve_linter :   1426.22s CPU   1442.23s WALL (      32 calls)
     dvqpsi_us    :     14.74s CPU     14.95s WALL (    5646 calls)
     ortho        :     22.39s CPU     22.76s WALL (   50268 calls)
     cgsolve      :   1163.89s CPU   1175.35s WALL (   50268 calls)
     incdrhoscf   :     85.70s CPU     86.63s WALL (   50268 calls)
     addusddens   :     30.57s CPU     30.61s WALL (     316 calls)
     vpsifft      :     58.60s CPU     59.64s WALL (   44100 calls)
     dv_of_drho   :      7.90s CPU      7.99s WALL (     428 calls)
     mix_pot      :      1.03s CPU      1.88s WALL (     291 calls)
     psymdvscf    :      7.09s CPU      7.17s WALL (     284 calls)
     newdq        :     33.90s CPU     33.97s WALL (     291 calls)
     adddvscf     :     10.03s CPU     10.21s WALL (   44622 calls)
     drhodvus     :      0.04s CPU      0.07s WALL (      32 calls)

     dvqpsi_us    :     14.74s CPU     14.95s WALL (    5646 calls)
     dvqpsi_us_on :      5.60s CPU      5.66s WALL (    5646 calls)

     cgsolve      :   1163.89s CPU   1175.35s WALL (   50268 calls)
     ch_psi       :   1138.23s CPU   1149.42s WALL (  558241 calls)

     ch_psi       :   1138.23s CPU   1149.42s WALL (  558241 calls)
     h_psi        :    854.23s CPU    862.81s WALL (  584671 calls)
     last         :    220.84s CPU    222.84s WALL (  558241 calls)

     h_psi        :    854.23s CPU    862.81s WALL (  584671 calls)
     add_vuspsi   :    107.81s CPU    108.88s WALL (  584671 calls)

     incdrhoscf   :     85.70s CPU     86.63s WALL (   50268 calls)
     addusdbec    :     11.32s CPU     11.42s WALL (   55740 calls)

     drhodvus     :      0.04s CPU      0.07s WALL (      32 calls)

      General routines
     calbec       :    214.04s CPU    216.28s WALL ( 1291986 calls)
     fft          :     10.41s CPU     10.60s WALL (    8011 calls)
     ffts         :      1.24s CPU      1.27s WALL (    6802 calls)
     fftw         :    654.61s CPU    661.78s WALL ( 4935772 calls)
     davcio       :      5.40s CPU      6.42s WALL (  246459 calls)
     write_rec    :      0.27s CPU      0.56s WALL (     323 calls)


     PHONON       :  25m52.38s CPU  26m 9.85s WALL


   This run was terminated on:  13: 7:41  12May2023            

=------------------------------------------------------------------------------=
   JOB DONE.
=------------------------------------------------------------------------------=
