
     Program PHONON v.6.8 starts on 12May2023 at 23:39:49 

     This program is part of the open-source Quantum ESPRESSO suite
     for quantum simulation of materials; please cite
         "P. Giannozzi et al., J. Phys.:Condens. Matter 21 395502 (2009);
         "P. Giannozzi et al., J. Phys.:Condens. Matter 29 465901 (2017);
         "P. Giannozzi et al., J. Chem. Phys. 152 154105 (2020);
          URL http://www.quantum-espresso.org", 
     in publications or presentations arising from this work. More details at
     http://www.quantum-espresso.org/quote

     Parallel version (MPI), running on     4 processors

     MPI processes distributed on     1 nodes
     R & G space division:  proc/nbgrp/npool/nimage =       4
     4407 MiB available memory on the printing compute node when the environment starts

     Reading input from ph.aln.in

     Reading xml data from directory:

     ./aln.save/
     file Al.pbe-n-kjpaw_psl.1.0.0.UPF: wavefunction(s)  3S 3P renormalized

     IMPORTANT: XC functional enforced from input :
     Exchange-correlation= PBE
                           (   1   4   3   4   0   0   0)
     Any further DFT definition will be discarded
     Please, verify this is what you really want


     Parallelization info
     --------------------
     sticks:   dense  smooth     PW     G-vecs:    dense   smooth      PW
     Min         289     118     37                12761     3416     577
     Max         290     119     38                12768     3423     582
     Sum        1159     475    151                51061    13681    2321

     Using Slab Decomposition

     Reading collected, re-writing distributed wavefunctions


     Dynamical matrices for ( 2, 2, 1)  uniform grid of q-points
     (   2 q-points):
       N         xq(1)         xq(2)         xq(3) 
       1   0.000000000   0.000000000   0.000000000
       2  -0.288675134  -0.500000003   0.000000000

     Calculation of q =   -0.2886751  -0.5000000   0.0000000

     Subspace diagonalization in iterative solution of the eigenvalue problem:
     a serial algorithm will be used


     Parallelization info
     --------------------
     sticks:   dense  smooth     PW     G-vecs:    dense   smooth      PW
     Min         289     118     40                12761     3416     694
     Max         290     119     41                12768     3423     699
     Sum        1159     475    163                51061    13681    2791

     Using Slab Decomposition


     Title: 
     phonons of Si mesh                                                         


     bravais-lattice index     =            0
     lattice parameter (alat)  =       5.9161  a.u.
     unit-cell volume          =     287.5046 (a.u.)^3
     number of atoms/cell      =            4
     number of atomic types    =            2
     number of electrons       =        16.00
     number of Kohn-Sham states=            8
     kinetic-energy cutoff     =      50.0000  Ry
     charge density cutoff     =     480.0000  Ry
     Exchange-correlation= PBE
                           (   1   4   3   4   0   0   0)

     celldm(1)=   5.916099  celldm(2)=   0.000000  celldm(3)=   0.000000
     celldm(4)=   0.000000  celldm(5)=   0.000000  celldm(6)=   0.000000

     crystal axes: (cart. coord. in units of alat)
               a(1) = (   0.866025  -0.500000   0.000000 )  
               a(2) = (   0.000000   1.000000   0.000000 )  
               a(3) = (   0.000000   0.000000   1.603275 )  

     reciprocal axes: (cart. coord. in units 2 pi/alat)
               b(1) = (  1.154701  0.000000  0.000000 )  
               b(2) = (  0.577350  1.000000 -0.000000 )  
               b(3) = ( -0.000000  0.000000  0.623723 )  


     PseudoPot. # 1 for Al read from file:
     ./pseudo/Al.pbe-n-kjpaw_psl.1.0.0.UPF
     MD5 check sum: cfc449ca30b5f3223ec38ddd88ac046d
     Pseudo is Projector augmented-wave + core cor, Zval =  3.0
     Generated using "atomic" code by A. Dal Corso  v.5.1
     Shape of augmentation charge: PSQ
     Using radial grid of 1135 points,  6 beta functions with: 
                l(1) =   0
                l(2) =   0
                l(3) =   1
                l(4) =   1
                l(5) =   2
                l(6) =   2
     Q(r) pseudized with 0 coefficients 


     PseudoPot. # 2 for N  read from file:
     ./pseudo/N.pbe-n-radius_5.UPF
     MD5 check sum: 16739722b17309cd8fe442a2ace49922
     Pseudo is Ultrasoft + core correction, Zval =  5.0
     Generated using "atomic" code by A. Dal Corso  v.5.1
     Using radial grid of 1085 points,  4 beta functions with: 
                l(1) =   0
                l(2) =   0
                l(3) =   1
                l(4) =   1
     Q(r) pseudized with 0 coefficients 


     atomic species   valence    mass     pseudopotential
        Al             3.00    26.98154     Al( 1.00)
        N              5.00    14.00670     N ( 1.00)

     12 Sym. Ops. (no inversion) found



   Cartesian axes

     site n.     atom                  positions (alat units)
         1           Al  tau(   1) = (   0.2886751   0.5000000  -0.0012027  )
         2           Al  tau(   2) = (   0.5773503   0.0000000   0.8004348  )
         3           N   tau(   3) = (   0.2886751   0.5000000   0.6104472  )
         4           N   tau(   4) = (   0.5773503   0.0000000   1.4120847  )

     number of k points=    52
                       cart. coord. in units 2pi/alat
        k(    1) = (   0.0000000   0.0000000   0.0000000), wk =   0.0185185
        k(    2) = (  -0.2886751  -0.5000000   0.0000000), wk =   0.0000000
        k(    3) = (   0.0000000   0.0000000   0.2079078), wk =   0.0370370
        k(    4) = (  -0.2886751  -0.5000000   0.2079078), wk =   0.0000000
        k(    5) = (   0.0962250   0.1666667   0.0000000), wk =   0.0370370
        k(    6) = (  -0.1924501  -0.3333333   0.0000000), wk =   0.0000000
        k(    7) = (   0.0962250   0.1666667   0.2079078), wk =   0.0740741
        k(    8) = (  -0.1924501  -0.3333333   0.2079078), wk =   0.0000000
        k(    9) = (   0.1924501   0.3333333   0.0000000), wk =   0.0370370
        k(   10) = (  -0.0962250  -0.1666667   0.0000000), wk =   0.0000000
        k(   11) = (   0.1924501   0.3333333   0.2079078), wk =   0.0740741
        k(   12) = (  -0.0962250  -0.1666667   0.2079078), wk =   0.0000000
        k(   13) = (  -0.2886751  -0.5000000   0.0000000), wk =   0.0185185
        k(   14) = (  -0.5773503  -1.0000000   0.0000000), wk =   0.0000000
        k(   15) = (  -0.2886751  -0.5000000   0.2079078), wk =   0.0370370
        k(   16) = (  -0.5773503  -1.0000000   0.2079078), wk =   0.0000000
        k(   17) = (   0.2886751   0.1666667   0.0000000), wk =   0.0740741
        k(   18) = (   0.0000000  -0.3333333   0.0000000), wk =   0.0000000
        k(   19) = (   0.2886751   0.1666667   0.2079078), wk =   0.1481481
        k(   20) = (   0.0000000  -0.3333333   0.2079078), wk =   0.0000000
        k(   21) = (   0.3849002   0.3333333   0.0000000), wk =   0.0740741
        k(   22) = (   0.0962250  -0.1666667   0.0000000), wk =   0.0000000
        k(   23) = (   0.3849002   0.3333333   0.2079078), wk =   0.1481481
        k(   24) = (   0.0962250  -0.1666667   0.2079078), wk =   0.0000000
        k(   25) = (   0.5773503   0.3333333   0.0000000), wk =   0.0370370
        k(   26) = (   0.2886751  -0.1666667   0.0000000), wk =   0.0000000
        k(   27) = (   0.5773503   0.3333333   0.2079078), wk =   0.0740741
        k(   28) = (   0.2886751  -0.1666667   0.2079078), wk =   0.0000000
        k(   29) = (  -0.1924501   0.0000000   0.0000000), wk =   0.0740741
        k(   30) = (  -0.4811252  -0.5000000   0.0000000), wk =   0.0000000
        k(   31) = (  -0.1924501   0.0000000   0.2079078), wk =   0.1481481
        k(   32) = (  -0.4811252  -0.5000000   0.2079078), wk =   0.0000000
        k(   33) = (  -0.3849002   0.0000000   0.0000000), wk =   0.0740741
        k(   34) = (  -0.6735753  -0.5000000   0.0000000), wk =   0.0000000
        k(   35) = (  -0.3849002   0.0000000   0.2079078), wk =   0.1481481
        k(   36) = (  -0.6735753  -0.5000000   0.2079078), wk =   0.0000000
        k(   37) = (   0.5773503  -0.0000000   0.0000000), wk =   0.0370370
        k(   38) = (   0.2886751  -0.5000000   0.0000000), wk =   0.0000000
        k(   39) = (   0.5773503  -0.0000000   0.2079078), wk =   0.0740741
        k(   40) = (   0.2886751  -0.5000000   0.2079078), wk =   0.0000000
        k(   41) = (  -0.2886751   0.1666667   0.0000000), wk =   0.0370370
        k(   42) = (  -0.5773503  -0.3333333   0.0000000), wk =   0.0000000
        k(   43) = (  -0.2886751   0.1666667   0.2079078), wk =   0.0740741
        k(   44) = (  -0.5773503  -0.3333333   0.2079078), wk =   0.0000000
        k(   45) = (  -0.4811252   0.1666667   0.0000000), wk =   0.0740741
        k(   46) = (  -0.7698004  -0.3333333   0.0000000), wk =   0.0000000
        k(   47) = (   0.0962250  -0.5000000   0.0000000), wk =   0.0740741
        k(   48) = (  -0.1924501  -1.0000000   0.0000000), wk =   0.0000000
        k(   49) = (  -0.4811252   0.1666667   0.2079078), wk =   0.1481481
        k(   50) = (  -0.7698004  -0.3333333   0.2079078), wk =   0.0000000
        k(   51) = (   0.0962250  -0.5000000   0.2079078), wk =   0.1481481
        k(   52) = (  -0.1924501  -1.0000000   0.2079078), wk =   0.0000000

     Dense  grid:    51061 G-vectors     FFT dimensions: (  45,  45,  72)

     Smooth grid:    13681 G-vectors     FFT dimensions: (  27,  27,  48)

     Estimated max dynamical RAM per process >      45.26 MB

     Estimated total dynamical RAM >     181.03 MB

     The potential is recalculated from file :
     ./_ph0/aln.save/charge-density

     Starting wfcs are   16 atomic wfcs
     Checking if some PAW data can be deallocated... 

     Band Structure Calculation
     Davidson diagonalization with overlap

     ethr =  6.25E-11,  avg # of iterations = 13.5

     total cpu time spent up to now is        8.4 secs

     End of band structure calculation

          k = 0.0000 0.0000 0.0000 (  1737 PWs)   bands (ev):

    -8.1603  -6.0790   0.9979   6.0599   6.0599   6.7022   6.7022   6.9032

          k =-0.2887-0.5000 0.0000 (  1694 PWs)   bands (ev):

    -6.2476  -5.5736   1.5299   2.7840   3.6103   4.8514   5.1611   6.2232

          k = 0.0000 0.0000 0.2079 (  1720 PWs)   bands (ev):

    -7.7562  -6.7544   2.3090   5.0200   6.2135   6.2135   6.5345   6.5345

          k =-0.2887-0.5000 0.2079 (  1714 PWs)   bands (ev):

    -6.0635  -5.7210   1.2502   1.8192   4.7965   5.1433   5.8197   5.8396

          k = 0.0962 0.1667 0.0000 (  1739 PWs)   bands (ev):

    -7.8214  -5.8959   1.4082   4.6565   5.4152   5.6749   6.6205   6.7338

          k =-0.1925-0.3333 0.0000 (  1702 PWs)   bands (ev):

    -6.9490  -5.5712   2.4510   2.5549   3.6140   5.0939   6.0490   6.3621

          k = 0.0962 0.1667 0.2079 (  1719 PWs)   bands (ev):

    -7.4379  -6.5042   2.4541   4.3415   5.1630   5.8892   6.1272   6.3597

          k =-0.1925-0.3333 0.2079 (  1710 PWs)   bands (ev):

    -6.6440  -5.9598   1.9771   2.6613   4.4170   5.3677   5.9945   6.0012

          k = 0.1925 0.3333 0.0000 (  1702 PWs)   bands (ev):

    -6.9490  -5.5712   2.4510   2.5549   3.6140   5.0939   6.0490   6.3621

          k =-0.0962-0.1667 0.0000 (  1739 PWs)   bands (ev):

    -7.8214  -5.8959   1.4082   4.6565   5.4152   5.6749   6.6205   6.7338

          k = 0.1925 0.3333 0.2079 (  1710 PWs)   bands (ev):

    -6.6440  -5.9598   1.9771   2.6613   4.4170   5.3677   5.9945   6.0012

          k =-0.0962-0.1667 0.2079 (  1719 PWs)   bands (ev):

    -7.4379  -6.5042   2.4541   4.3415   5.1630   5.8892   6.1272   6.3597

          k =-0.2887-0.5000 0.0000 (  1694 PWs)   bands (ev):

    -6.2476  -5.5736   1.5299   2.7840   3.6103   4.8514   5.1611   6.2232

          k =-0.5774-1.0000 0.0000 (  1737 PWs)   bands (ev):

    -8.1603  -6.0790   0.9979   6.0599   6.0599   6.7022   6.7022   6.9032

          k =-0.2887-0.5000 0.2079 (  1714 PWs)   bands (ev):

    -6.0635  -5.7210   1.2502   1.8192   4.7965   5.1433   5.8197   5.8396

          k =-0.5774-1.0000 0.2079 (  1720 PWs)   bands (ev):

    -7.7562  -6.7544   2.3090   5.0200   6.2135   6.2135   6.5345   6.5345

          k = 0.2887 0.1667 0.0000 (  1713 PWs)   bands (ev):

    -7.2095  -5.6354   2.1809   3.5664   3.5694   5.2243   6.0223   6.3214

          k = 0.0000-0.3333 0.0000 (  1713 PWs)   bands (ev):

    -7.2095  -5.6354   2.1809   3.5664   3.5694   5.2243   6.0223   6.3214

          k = 0.2887 0.1667 0.2079 (  1707 PWs)   bands (ev):

    -6.8753  -6.1001   2.3866   3.1683   4.6085   5.0057   5.6525   6.2282

          k = 0.0000-0.3333 0.2079 (  1707 PWs)   bands (ev):

    -6.8753  -6.1001   2.3866   3.1683   4.6085   5.0057   5.6525   6.2282

          k = 0.3849 0.3333 0.0000 (  1721 PWs)   bands (ev):

    -6.3176  -5.5145   2.0187   3.0193   3.4724   4.1544   5.3976   5.4799

          k = 0.0962-0.1667 0.0000 (  1739 PWs)   bands (ev):

    -7.8214  -5.8959   1.4082   4.6565   5.4152   5.6749   6.6205   6.7338

          k = 0.3849 0.3333 0.2079 (  1715 PWs)   bands (ev):

    -6.1108  -5.7049   1.7271   2.1715   3.9646   4.7626   5.2305   6.1131

          k = 0.0962-0.1667 0.2079 (  1719 PWs)   bands (ev):

    -7.4379  -6.5042   2.4541   4.3415   5.1630   5.8892   6.1272   6.3597

          k = 0.5774 0.3333 0.0000 (  1722 PWs)   bands (ev):

    -5.7314  -5.7314   2.1788   3.1513   3.1513   4.4931   4.5580   4.5580

          k = 0.2887-0.1667 0.0000 (  1713 PWs)   bands (ev):

    -7.2095  -5.6354   2.1809   3.5664   3.5694   5.2243   6.0223   6.3214

          k = 0.5774 0.3333 0.2079 (  1704 PWs)   bands (ev):

    -5.6989  -5.6989   2.3074   2.3074   2.6140   3.7191   5.7879   5.7879

          k = 0.2887-0.1667 0.2079 (  1707 PWs)   bands (ev):

    -6.8753  -6.1001   2.3866   3.1683   4.6085   5.0057   5.6525   6.2282

          k =-0.1925 0.0000 0.0000 (  1739 PWs)   bands (ev):

    -7.8214  -5.8959   1.4082   4.6565   5.4152   5.6749   6.6205   6.7338

          k =-0.4811-0.5000 0.0000 (  1721 PWs)   bands (ev):

    -6.3176  -5.5145   2.0187   3.0193   3.4724   4.1544   5.3976   5.4799

          k =-0.1925 0.0000 0.2079 (  1719 PWs)   bands (ev):

    -7.4379  -6.5042   2.4541   4.3415   5.1630   5.8892   6.1272   6.3597

          k =-0.4811-0.5000 0.2079 (  1715 PWs)   bands (ev):

    -6.1108  -5.7049   1.7271   2.1715   3.9646   4.7626   5.2305   6.1131

          k =-0.3849 0.0000 0.0000 (  1702 PWs)   bands (ev):

    -6.9490  -5.5712   2.4510   2.5549   3.6140   5.0939   6.0490   6.3621

          k =-0.6736-0.5000 0.0000 (  1721 PWs)   bands (ev):

    -6.3176  -5.5145   2.0187   3.0193   3.4724   4.1544   5.3976   5.4799

          k =-0.3849 0.0000 0.2079 (  1710 PWs)   bands (ev):

    -6.6440  -5.9598   1.9771   2.6613   4.4170   5.3677   5.9945   6.0012

          k =-0.6736-0.5000 0.2079 (  1715 PWs)   bands (ev):

    -6.1108  -5.7049   1.7271   2.1715   3.9646   4.7626   5.2305   6.1131

          k = 0.5774-0.0000 0.0000 (  1694 PWs)   bands (ev):

    -6.2476  -5.5736   1.5299   2.7840   3.6103   4.8514   5.1611   6.2232

          k = 0.2887-0.5000 0.0000 (  1694 PWs)   bands (ev):

    -6.2476  -5.5736   1.5299   2.7840   3.6103   4.8514   5.1611   6.2232

          k = 0.5774-0.0000 0.2079 (  1714 PWs)   bands (ev):

    -6.0635  -5.7210   1.2502   1.8192   4.7965   5.1433   5.8197   5.8396

          k = 0.2887-0.5000 0.2079 (  1714 PWs)   bands (ev):

    -6.0635  -5.7210   1.2502   1.8192   4.7965   5.1433   5.8197   5.8396

          k =-0.2887 0.1667 0.0000 (  1713 PWs)   bands (ev):

    -7.2095  -5.6354   2.1809   3.5664   3.5694   5.2243   6.0223   6.3214

          k =-0.5774-0.3333 0.0000 (  1722 PWs)   bands (ev):

    -5.7314  -5.7314   2.1788   3.1513   3.1513   4.4931   4.5580   4.5580

          k =-0.2887 0.1667 0.2079 (  1707 PWs)   bands (ev):

    -6.8753  -6.1001   2.3866   3.1683   4.6085   5.0057   5.6525   6.2282

          k =-0.5774-0.3333 0.2079 (  1704 PWs)   bands (ev):

    -5.6989  -5.6989   2.3074   2.3074   2.6140   3.7191   5.7879   5.7879

          k =-0.4811 0.1667 0.0000 (  1721 PWs)   bands (ev):

    -6.3176  -5.5145   2.0187   3.0193   3.4724   4.1544   5.3976   5.4799

          k =-0.7698-0.3333 0.0000 (  1721 PWs)   bands (ev):

    -6.3176  -5.5145   2.0187   3.0193   3.4724   4.1544   5.3976   5.4799

          k = 0.0962-0.5000 0.0000 (  1721 PWs)   bands (ev):

    -6.3176  -5.5145   2.0187   3.0193   3.4724   4.1544   5.3976   5.4799

          k =-0.1925-1.0000 0.0000 (  1702 PWs)   bands (ev):

    -6.9490  -5.5712   2.4510   2.5549   3.6140   5.0939   6.0490   6.3621

          k =-0.4811 0.1667 0.2079 (  1715 PWs)   bands (ev):

    -6.1108  -5.7049   1.7271   2.1715   3.9646   4.7626   5.2305   6.1131

          k =-0.7698-0.3333 0.2079 (  1715 PWs)   bands (ev):

    -6.1108  -5.7049   1.7271   2.1715   3.9646   4.7626   5.2305   6.1131

          k = 0.0962-0.5000 0.2079 (  1715 PWs)   bands (ev):

    -6.1108  -5.7049   1.7271   2.1715   3.9646   4.7626   5.2305   6.1131

          k =-0.1925-1.0000 0.2079 (  1710 PWs)   bands (ev):

    -6.6440  -5.9598   1.9771   2.6613   4.4170   5.3677   5.9945   6.0012

     highest occupied level (ev):     6.9032

     Writing output data file ./_ph0/aln.save/

     phonons of Si mesh                                                         

     bravais-lattice index     =            0
     lattice parameter (alat)  =       5.9161  a.u.
     unit-cell volume          =     287.5046 (a.u.)^3
     number of atoms/cell      =            4
     number of atomic types    =            2
     kinetic-energy cut-off    =      50.0000  Ry
     charge density cut-off    =     480.0000  Ry
     convergence threshold     =      1.0E-16
     beta                      =       0.5000
     number of iterations used =            4
     Exchange-correlation= PBE
                           (   1   4   3   4   0   0   0)


     celldm(1)=    5.91610  celldm(2)=    0.00000  celldm(3)=    0.00000
     celldm(4)=    0.00000  celldm(5)=    0.00000  celldm(6)=    0.00000

     crystal axes: (cart. coord. in units of alat)
               a(1) = (  0.8660 -0.5000  0.0000 )  
               a(2) = (  0.0000  1.0000  0.0000 )  
               a(3) = (  0.0000  0.0000  1.6033 )  

     reciprocal axes: (cart. coord. in units 2 pi/alat)
               b(1) = (  1.1547  0.0000  0.0000 )  
               b(2) = (  0.5774  1.0000 -0.0000 )  
               b(3) = ( -0.0000  0.0000  0.6237 )  


     Atoms inside the unit cell: 

     Cartesian axes

     site n.  atom      mass           positions (alat units)
        1     Al  26.9815   tau(    1) = (    0.28868    0.50000   -0.00120  )
        2     Al  26.9815   tau(    2) = (    0.57735    0.00000    0.80043  )
        3     N   14.0067   tau(    3) = (    0.28868    0.50000    0.61045  )
        4     N   14.0067   tau(    4) = (    0.57735    0.00000    1.41208  )

     Computing dynamical matrix for 
                    q = (  -0.2886751  -0.5000000   0.0000000 )

      5 Sym.Ops. (with q -> -q+G )


     G cutoff =  425.5517  (  12768 G-vectors)     FFT grid: ( 45, 45, 72)
     G cutoff =  177.3132  (   3423 G-vectors)  smooth grid: ( 27, 27, 48)
     number of k points=    52

     PseudoPot. # 1 for Al read from file:
     ./pseudo/Al.pbe-n-kjpaw_psl.1.0.0.UPF
     MD5 check sum: cfc449ca30b5f3223ec38ddd88ac046d
     Pseudo is Projector augmented-wave + core cor, Zval =  3.0
     Generated using "atomic" code by A. Dal Corso  v.5.1
     Shape of augmentation charge: PSQ
     Using radial grid of 1135 points,  6 beta functions with: 
                l(1) =   0
                l(2) =   0
                l(3) =   1
                l(4) =   1
                l(5) =   2
                l(6) =   2
     Q(r) pseudized with 0 coefficients 


     PseudoPot. # 2 for N  read from file:
     ./pseudo/N.pbe-n-radius_5.UPF
     MD5 check sum: 16739722b17309cd8fe442a2ace49922
     Pseudo is Ultrasoft + core correction, Zval =  5.0
     Generated using "atomic" code by A. Dal Corso  v.5.1
     Using radial grid of 1085 points,  4 beta functions with: 
                l(1) =   0
                l(2) =   0
                l(3) =   1
                l(4) =   1
     Q(r) pseudized with 0 coefficients 


     Mode symmetry, C_2v (mm2)  point group:


     Atomic displacements:
     There are   12 irreducible representations

     Representation     1      1 modes -  To be done

     Representation     2      1 modes -  To be done

     Representation     3      1 modes -  To be done

     Representation     4      1 modes -  To be done

     Representation     5      1 modes -  To be done

     Representation     6      1 modes -  To be done

     Representation     7      1 modes -  To be done

     Representation     8      1 modes -  To be done

     Representation     9      1 modes -  To be done

     Representation    10      1 modes -  To be done

     Representation    11      1 modes -  To be done

     Representation    12      1 modes -  To be done



     Alpha used in Ewald sum =   2.8000
     PHONON       :     18.06s CPU     18.38s WALL



     Representation #   1 mode #   1

     Self-consistent Calculation

      iter #   1 total cpu time :    22.4 secs   av.it.:   7.5
      thresh= 1.000E-02 alpha_mix =  0.500 |ddv_scf|^2 =  1.826E-05

      iter #   2 total cpu time :    27.2 secs   av.it.:  11.2
      thresh= 4.273E-04 alpha_mix =  0.500 |ddv_scf|^2 =  2.959E-06

      iter #   3 total cpu time :    32.0 secs   av.it.:  11.2
      thresh= 1.720E-04 alpha_mix =  0.500 |ddv_scf|^2 =  4.915E-08

      iter #   4 total cpu time :    37.0 secs   av.it.:  11.7
      thresh= 2.217E-05 alpha_mix =  0.500 |ddv_scf|^2 =  3.808E-09

      iter #   5 total cpu time :    41.8 secs   av.it.:  11.6
      thresh= 6.171E-06 alpha_mix =  0.500 |ddv_scf|^2 =  1.883E-11

      iter #   6 total cpu time :    46.7 secs   av.it.:  11.7
      thresh= 4.339E-07 alpha_mix =  0.500 |ddv_scf|^2 =  2.370E-12

      iter #   7 total cpu time :    51.5 secs   av.it.:  11.7
      thresh= 1.540E-07 alpha_mix =  0.500 |ddv_scf|^2 =  4.721E-14

      iter #   8 total cpu time :    56.3 secs   av.it.:  11.3
      thresh= 2.173E-08 alpha_mix =  0.500 |ddv_scf|^2 =  4.625E-15

      iter #   9 total cpu time :    61.3 secs   av.it.:  12.0
      thresh= 6.800E-09 alpha_mix =  0.500 |ddv_scf|^2 =  2.584E-16

      iter #  10 total cpu time :    66.3 secs   av.it.:  12.0
      thresh= 1.607E-09 alpha_mix =  0.500 |ddv_scf|^2 =  5.550E-17

     End of self-consistent calculation

     Convergence has been achieved 


     Representation #   2 mode #   2

     Self-consistent Calculation

      iter #   1 total cpu time :    69.9 secs   av.it.:   5.8
      thresh= 1.000E-02 alpha_mix =  0.500 |ddv_scf|^2 =  5.790E-07

      iter #   2 total cpu time :    74.7 secs   av.it.:  11.4
      thresh= 7.609E-05 alpha_mix =  0.500 |ddv_scf|^2 =  9.282E-08

      iter #   3 total cpu time :    79.4 secs   av.it.:  11.4
      thresh= 3.047E-05 alpha_mix =  0.500 |ddv_scf|^2 =  4.385E-09

      iter #   4 total cpu time :    84.3 secs   av.it.:  11.6
      thresh= 6.622E-06 alpha_mix =  0.500 |ddv_scf|^2 =  7.694E-10

      iter #   5 total cpu time :    89.2 secs   av.it.:  11.5
      thresh= 2.774E-06 alpha_mix =  0.500 |ddv_scf|^2 =  5.243E-11

      iter #   6 total cpu time :    94.0 secs   av.it.:  11.4
      thresh= 7.241E-07 alpha_mix =  0.500 |ddv_scf|^2 =  1.510E-12

      iter #   7 total cpu time :    98.4 secs   av.it.:  10.2
      thresh= 1.229E-07 alpha_mix =  0.500 |ddv_scf|^2 =  1.499E-13

      iter #   8 total cpu time :   102.9 secs   av.it.:  10.3
      thresh= 3.871E-08 alpha_mix =  0.500 |ddv_scf|^2 =  3.109E-16

      iter #   9 total cpu time :   107.8 secs   av.it.:  12.1
      thresh= 1.763E-09 alpha_mix =  0.500 |ddv_scf|^2 =  4.997E-17

     End of self-consistent calculation

     Convergence has been achieved 


     Representation #   3 mode #   3

     Self-consistent Calculation

      iter #   1 total cpu time :   111.7 secs   av.it.:   7.1
      thresh= 1.000E-02 alpha_mix =  0.500 |ddv_scf|^2 =  3.043E-06

      iter #   2 total cpu time :   116.5 secs   av.it.:  11.6
      thresh= 1.744E-04 alpha_mix =  0.500 |ddv_scf|^2 =  3.788E-08

      iter #   3 total cpu time :   121.4 secs   av.it.:  11.9
      thresh= 1.946E-05 alpha_mix =  0.500 |ddv_scf|^2 =  7.496E-09

      iter #   4 total cpu time :   126.2 secs   av.it.:  11.7
      thresh= 8.658E-06 alpha_mix =  0.500 |ddv_scf|^2 =  5.259E-10

      iter #   5 total cpu time :   131.1 secs   av.it.:  12.0
      thresh= 2.293E-06 alpha_mix =  0.500 |ddv_scf|^2 =  8.941E-11

      iter #   6 total cpu time :   136.0 secs   av.it.:  12.0
      thresh= 9.456E-07 alpha_mix =  0.500 |ddv_scf|^2 =  1.866E-12

      iter #   7 total cpu time :   140.7 secs   av.it.:  11.6
      thresh= 1.366E-07 alpha_mix =  0.500 |ddv_scf|^2 =  3.814E-13

      iter #   8 total cpu time :   145.6 secs   av.it.:  11.8
      thresh= 6.175E-08 alpha_mix =  0.500 |ddv_scf|^2 =  4.386E-15

      iter #   9 total cpu time :   150.5 secs   av.it.:  11.8
      thresh= 6.623E-09 alpha_mix =  0.500 |ddv_scf|^2 =  2.142E-16

      iter #  10 total cpu time :   155.5 secs   av.it.:  12.1
      thresh= 1.464E-09 alpha_mix =  0.500 |ddv_scf|^2 =  1.921E-17

     End of self-consistent calculation

     Convergence has been achieved 


     Representation #   4 mode #   4

     Self-consistent Calculation

      iter #   1 total cpu time :   159.2 secs   av.it.:   6.2
      thresh= 1.000E-02 alpha_mix =  0.500 |ddv_scf|^2 =  1.373E-06

      iter #   2 total cpu time :   164.1 secs   av.it.:  11.7
      thresh= 1.172E-04 alpha_mix =  0.500 |ddv_scf|^2 =  6.094E-07

      iter #   3 total cpu time :   168.9 secs   av.it.:  11.4
      thresh= 7.806E-05 alpha_mix =  0.500 |ddv_scf|^2 =  6.777E-09

      iter #   4 total cpu time :   173.7 secs   av.it.:  11.5
      thresh= 8.232E-06 alpha_mix =  0.500 |ddv_scf|^2 =  6.025E-10

      iter #   5 total cpu time :   178.4 secs   av.it.:  11.3
      thresh= 2.455E-06 alpha_mix =  0.500 |ddv_scf|^2 =  1.888E-11

      iter #   6 total cpu time :   183.1 secs   av.it.:  11.2
      thresh= 4.345E-07 alpha_mix =  0.500 |ddv_scf|^2 =  5.955E-13

      iter #   7 total cpu time :   187.7 secs   av.it.:  10.8
      thresh= 7.717E-08 alpha_mix =  0.500 |ddv_scf|^2 =  7.479E-14

      iter #   8 total cpu time :   192.5 secs   av.it.:  11.5
      thresh= 2.735E-08 alpha_mix =  0.500 |ddv_scf|^2 =  1.344E-16

      iter #   9 total cpu time :   197.3 secs   av.it.:  11.7
      thresh= 1.159E-09 alpha_mix =  0.500 |ddv_scf|^2 =  2.889E-17

     End of self-consistent calculation

     Convergence has been achieved 


     Representation #   5 mode #   5

     Self-consistent Calculation

      iter #   1 total cpu time :   201.1 secs   av.it.:   6.8
      thresh= 1.000E-02 alpha_mix =  0.500 |ddv_scf|^2 =  9.563E-07

      iter #   2 total cpu time :   205.8 secs   av.it.:  11.1
      thresh= 9.779E-05 alpha_mix =  0.500 |ddv_scf|^2 =  4.245E-08

      iter #   3 total cpu time :   210.6 secs   av.it.:  11.7
      thresh= 2.060E-05 alpha_mix =  0.500 |ddv_scf|^2 =  9.159E-11

      iter #   4 total cpu time :   215.5 secs   av.it.:  12.0
      thresh= 9.570E-07 alpha_mix =  0.500 |ddv_scf|^2 =  1.040E-12

      iter #   5 total cpu time :   220.1 secs   av.it.:  10.8
      thresh= 1.020E-07 alpha_mix =  0.500 |ddv_scf|^2 =  1.588E-13

      iter #   6 total cpu time :   224.9 secs   av.it.:  11.6
      thresh= 3.984E-08 alpha_mix =  0.500 |ddv_scf|^2 =  2.856E-15

      iter #   7 total cpu time :   229.6 secs   av.it.:  11.4
      thresh= 5.345E-09 alpha_mix =  0.500 |ddv_scf|^2 =  1.532E-17

     End of self-consistent calculation

     Convergence has been achieved 


     Representation #   6 mode #   6

     Self-consistent Calculation

      iter #   1 total cpu time :   232.9 secs   av.it.:   4.7
      thresh= 1.000E-02 alpha_mix =  0.500 |ddv_scf|^2 =  1.668E-08

      iter #   2 total cpu time :   237.5 secs   av.it.:  10.7
      thresh= 1.292E-05 alpha_mix =  0.500 |ddv_scf|^2 =  3.454E-09

      iter #   3 total cpu time :   242.2 secs   av.it.:  11.1
      thresh= 5.877E-06 alpha_mix =  0.500 |ddv_scf|^2 =  9.927E-11

      iter #   4 total cpu time :   246.9 secs   av.it.:  11.3
      thresh= 9.963E-07 alpha_mix =  0.500 |ddv_scf|^2 =  3.712E-12

      iter #   5 total cpu time :   251.5 secs   av.it.:  11.2
      thresh= 1.927E-07 alpha_mix =  0.500 |ddv_scf|^2 =  2.142E-13

      iter #   6 total cpu time :   256.3 secs   av.it.:  11.7
      thresh= 4.628E-08 alpha_mix =  0.500 |ddv_scf|^2 =  6.844E-16

      iter #   7 total cpu time :   261.1 secs   av.it.:  12.0
      thresh= 2.616E-09 alpha_mix =  0.500 |ddv_scf|^2 =  5.963E-18

     End of self-consistent calculation

     Convergence has been achieved 


     Representation #   7 mode #   7

     Self-consistent Calculation

      iter #   1 total cpu time :   264.6 secs   av.it.:   5.8
      thresh= 1.000E-02 alpha_mix =  0.500 |ddv_scf|^2 =  3.397E-07

      iter #   2 total cpu time :   269.4 secs   av.it.:  12.0
      thresh= 5.828E-05 alpha_mix =  0.500 |ddv_scf|^2 =  1.461E-07

      iter #   3 total cpu time :   274.1 secs   av.it.:  11.5
      thresh= 3.822E-05 alpha_mix =  0.500 |ddv_scf|^2 =  2.542E-09

      iter #   4 total cpu time :   278.8 secs   av.it.:  11.1
      thresh= 5.042E-06 alpha_mix =  0.500 |ddv_scf|^2 =  1.168E-10

      iter #   5 total cpu time :   283.5 secs   av.it.:  11.5
      thresh= 1.081E-06 alpha_mix =  0.500 |ddv_scf|^2 =  2.286E-11

      iter #   6 total cpu time :   288.2 secs   av.it.:  11.3
      thresh= 4.781E-07 alpha_mix =  0.500 |ddv_scf|^2 =  4.127E-13

      iter #   7 total cpu time :   292.8 secs   av.it.:  10.8
      thresh= 6.424E-08 alpha_mix =  0.500 |ddv_scf|^2 =  6.283E-14

      iter #   8 total cpu time :   297.4 secs   av.it.:  11.3
      thresh= 2.507E-08 alpha_mix =  0.500 |ddv_scf|^2 =  7.995E-17

     End of self-consistent calculation

     Convergence has been achieved 


     Representation #   8 mode #   8

     Self-consistent Calculation

      iter #   1 total cpu time :   301.3 secs   av.it.:   7.3
      thresh= 1.000E-02 alpha_mix =  0.500 |ddv_scf|^2 =  2.863E-06

      iter #   2 total cpu time :   306.1 secs   av.it.:  11.9
      thresh= 1.692E-04 alpha_mix =  0.500 |ddv_scf|^2 =  1.153E-07

      iter #   3 total cpu time :   310.9 secs   av.it.:  11.8
      thresh= 3.396E-05 alpha_mix =  0.500 |ddv_scf|^2 =  9.899E-09

      iter #   4 total cpu time :   315.7 secs   av.it.:  12.1
      thresh= 9.950E-06 alpha_mix =  0.500 |ddv_scf|^2 =  2.331E-09

      iter #   5 total cpu time :   320.4 secs   av.it.:  11.7
      thresh= 4.828E-06 alpha_mix =  0.500 |ddv_scf|^2 =  3.398E-11

      iter #   6 total cpu time :   325.2 secs   av.it.:  12.0
      thresh= 5.830E-07 alpha_mix =  0.500 |ddv_scf|^2 =  1.317E-12

      iter #   7 total cpu time :   329.9 secs   av.it.:  11.6
      thresh= 1.147E-07 alpha_mix =  0.500 |ddv_scf|^2 =  2.154E-13

      iter #   8 total cpu time :   334.8 secs   av.it.:  12.2
      thresh= 4.641E-08 alpha_mix =  0.500 |ddv_scf|^2 =  9.640E-15

      iter #   9 total cpu time :   339.6 secs   av.it.:  11.8
      thresh= 9.818E-09 alpha_mix =  0.500 |ddv_scf|^2 =  1.765E-16

      iter #  10 total cpu time :   344.4 secs   av.it.:  11.7
      thresh= 1.329E-09 alpha_mix =  0.500 |ddv_scf|^2 =  1.613E-17

     End of self-consistent calculation

     Convergence has been achieved 


     Representation #   9 mode #   9

     Self-consistent Calculation

      iter #   1 total cpu time :   347.9 secs   av.it.:   5.7
      thresh= 1.000E-02 alpha_mix =  0.500 |ddv_scf|^2 =  1.998E-07

      iter #   2 total cpu time :   352.7 secs   av.it.:  11.8
      thresh= 4.470E-05 alpha_mix =  0.500 |ddv_scf|^2 =  5.233E-08

      iter #   3 total cpu time :   357.4 secs   av.it.:  11.6
      thresh= 2.288E-05 alpha_mix =  0.500 |ddv_scf|^2 =  3.477E-09

      iter #   4 total cpu time :   362.2 secs   av.it.:  11.5
      thresh= 5.897E-06 alpha_mix =  0.500 |ddv_scf|^2 =  2.062E-10

      iter #   5 total cpu time :   367.1 secs   av.it.:  11.4
      thresh= 1.436E-06 alpha_mix =  0.500 |ddv_scf|^2 =  8.070E-12

      iter #   6 total cpu time :   372.0 secs   av.it.:  11.6
      thresh= 2.841E-07 alpha_mix =  0.500 |ddv_scf|^2 =  8.997E-13

      iter #   7 total cpu time :   376.8 secs   av.it.:  11.1
      thresh= 9.485E-08 alpha_mix =  0.500 |ddv_scf|^2 =  7.132E-14

      iter #   8 total cpu time :   381.6 secs   av.it.:  11.2
      thresh= 2.671E-08 alpha_mix =  0.500 |ddv_scf|^2 =  2.494E-15

      iter #   9 total cpu time :   386.4 secs   av.it.:  11.1
      thresh= 4.994E-09 alpha_mix =  0.500 |ddv_scf|^2 =  1.153E-16

      iter #  10 total cpu time :   391.3 secs   av.it.:  11.5
      thresh= 1.074E-09 alpha_mix =  0.500 |ddv_scf|^2 =  3.462E-18

     End of self-consistent calculation

     Convergence has been achieved 


     Representation #  10 mode #  10

     Self-consistent Calculation

      iter #   1 total cpu time :   395.3 secs   av.it.:   7.4
      thresh= 1.000E-02 alpha_mix =  0.500 |ddv_scf|^2 =  6.297E-06

      iter #   2 total cpu time :   400.2 secs   av.it.:  11.6
      thresh= 2.509E-04 alpha_mix =  0.500 |ddv_scf|^2 =  3.157E-07

      iter #   3 total cpu time :   405.0 secs   av.it.:  11.5
      thresh= 5.619E-05 alpha_mix =  0.500 |ddv_scf|^2 =  1.749E-08

      iter #   4 total cpu time :   409.9 secs   av.it.:  12.1
      thresh= 1.322E-05 alpha_mix =  0.500 |ddv_scf|^2 =  4.072E-09

      iter #   5 total cpu time :   414.7 secs   av.it.:  11.5
      thresh= 6.381E-06 alpha_mix =  0.500 |ddv_scf|^2 =  2.803E-11

      iter #   6 total cpu time :   419.7 secs   av.it.:  12.0
      thresh= 5.294E-07 alpha_mix =  0.500 |ddv_scf|^2 =  2.006E-12

      iter #   7 total cpu time :   424.5 secs   av.it.:  11.4
      thresh= 1.416E-07 alpha_mix =  0.500 |ddv_scf|^2 =  2.269E-13

      iter #   8 total cpu time :   429.4 secs   av.it.:  12.0
      thresh= 4.763E-08 alpha_mix =  0.500 |ddv_scf|^2 =  7.882E-15

      iter #   9 total cpu time :   434.2 secs   av.it.:  11.8
      thresh= 8.878E-09 alpha_mix =  0.500 |ddv_scf|^2 =  5.247E-16

      iter #  10 total cpu time :   439.1 secs   av.it.:  11.7
      thresh= 2.291E-09 alpha_mix =  0.500 |ddv_scf|^2 =  4.887E-17

     End of self-consistent calculation

     Convergence has been achieved 


     Representation #  11 mode #  11

     Self-consistent Calculation

      iter #   1 total cpu time :   442.5 secs   av.it.:   5.0
      thresh= 1.000E-02 alpha_mix =  0.500 |ddv_scf|^2 =  2.905E-08

      iter #   2 total cpu time :   447.1 secs   av.it.:  10.9
      thresh= 1.704E-05 alpha_mix =  0.500 |ddv_scf|^2 =  3.694E-09

      iter #   3 total cpu time :   451.7 secs   av.it.:  10.8
      thresh= 6.078E-06 alpha_mix =  0.500 |ddv_scf|^2 =  3.596E-10

      iter #   4 total cpu time :   456.2 secs   av.it.:  10.8
      thresh= 1.896E-06 alpha_mix =  0.500 |ddv_scf|^2 =  5.339E-12

      iter #   5 total cpu time :   460.7 secs   av.it.:  10.5
      thresh= 2.311E-07 alpha_mix =  0.500 |ddv_scf|^2 =  1.048E-13

      iter #   6 total cpu time :   465.4 secs   av.it.:  11.4
      thresh= 3.238E-08 alpha_mix =  0.500 |ddv_scf|^2 =  1.081E-15

      iter #   7 total cpu time :   470.2 secs   av.it.:  11.9
      thresh= 3.289E-09 alpha_mix =  0.500 |ddv_scf|^2 =  1.527E-17

     End of self-consistent calculation

     Convergence has been achieved 


     Representation #  12 mode #  12

     Self-consistent Calculation

      iter #   1 total cpu time :   473.9 secs   av.it.:   6.8
      thresh= 1.000E-02 alpha_mix =  0.500 |ddv_scf|^2 =  1.600E-06

      iter #   2 total cpu time :   478.4 secs   av.it.:  11.2
      thresh= 1.265E-04 alpha_mix =  0.500 |ddv_scf|^2 =  3.923E-08

      iter #   3 total cpu time :   483.1 secs   av.it.:  11.5
      thresh= 1.981E-05 alpha_mix =  0.500 |ddv_scf|^2 =  1.392E-10

      iter #   4 total cpu time :   487.7 secs   av.it.:  11.5
      thresh= 1.180E-06 alpha_mix =  0.500 |ddv_scf|^2 =  1.416E-12

      iter #   5 total cpu time :   492.1 secs   av.it.:  10.5
      thresh= 1.190E-07 alpha_mix =  0.500 |ddv_scf|^2 =  2.083E-13

      iter #   6 total cpu time :   496.6 secs   av.it.:  10.7
      thresh= 4.564E-08 alpha_mix =  0.500 |ddv_scf|^2 =  8.095E-16

      iter #   7 total cpu time :   501.4 secs   av.it.:  11.8
      thresh= 2.845E-09 alpha_mix =  0.500 |ddv_scf|^2 =  2.244E-17

     End of self-consistent calculation

     Convergence has been achieved 

     Number of q in the star =    3
     List of q in the star:
          1  -0.288675134  -0.500000003   0.000000000
          2   0.577350268  -0.000000000   0.000000000
          3  -0.288675134   0.500000003   0.000000000

     Diagonalizing the dynamical matrix

     q = (   -0.288675134  -0.500000003   0.000000000 ) 

 **************************************************************************
     freq (    1) =       6.699655 [THz] =     223.476426 [cm-1]
     freq (    2) =       8.985895 [THz] =     299.737187 [cm-1]
     freq (    3) =      10.087728 [THz] =     336.490384 [cm-1]
     freq (    4) =      11.833407 [THz] =     394.719981 [cm-1]
     freq (    5) =      14.776520 [THz] =     492.891668 [cm-1]
     freq (    6) =      15.285174 [THz] =     509.858516 [cm-1]
     freq (    7) =      18.638098 [THz] =     621.700018 [cm-1]
     freq (    8) =      19.218358 [THz] =     641.055418 [cm-1]
     freq (    9) =      19.673804 [THz] =     656.247458 [cm-1]
     freq (   10) =      19.751547 [THz] =     658.840680 [cm-1]
     freq (   11) =      21.374437 [THz] =     712.974473 [cm-1]
     freq (   12) =      21.949301 [THz] =     732.149862 [cm-1]
 **************************************************************************

     Mode symmetry, C_2v (mm2)  point group:

     freq (   1-   1) =        223.5  [cm-1]   --> A_2  D_2  S_2      
     freq (   2-   2) =        299.7  [cm-1]   --> B_1  D_3  S_3      
     freq (   3-   3) =        336.5  [cm-1]   --> B_2  D_4  S_4      
     freq (   4-   4) =        394.7  [cm-1]   --> A_1  D_1  S_1      
     freq (   5-   5) =        492.9  [cm-1]   --> B_1  D_3  S_3      
     freq (   6-   6) =        509.9  [cm-1]   --> A_1  D_1  S_1      
     freq (   7-   7) =        621.7  [cm-1]   --> B_1  D_3  S_3      
     freq (   8-   8) =        641.1  [cm-1]   --> A_2  D_2  S_2      
     freq (   9-   9) =        656.2  [cm-1]   --> B_2  D_4  S_4      
     freq (  10-  10) =        658.8  [cm-1]   --> A_1  D_1  S_1      
     freq (  11-  11) =        713.0  [cm-1]   --> B_1  D_3  S_3      
     freq (  12-  12) =        732.1  [cm-1]   --> A_1  D_1  S_1      

     init_run     :      1.17s CPU      1.21s WALL (       1 calls)
     electrons    :      7.02s CPU      7.18s WALL (       1 calls)

     Called by init_run:
     wfcinit      :      0.00s CPU      0.00s WALL (       1 calls)
     potinit      :      0.23s CPU      0.23s WALL (       1 calls)
     hinit0       :      0.71s CPU      0.71s WALL (       1 calls)

     Called by electrons:
     c_bands      :      7.02s CPU      7.18s WALL (       1 calls)
     v_of_rho     :      0.07s CPU      0.07s WALL (       2 calls)
     newd         :      0.15s CPU      0.19s WALL (       2 calls)
     PAW_pot      :      0.42s CPU      0.42s WALL (       2 calls)

     Called by c_bands:
     init_us_2    :      0.62s CPU      0.65s WALL (    3172 calls)
     cegterg      :      6.08s CPU      6.20s WALL (      52 calls)

     Called by *egterg:
     cdiaghg      :      0.17s CPU      0.18s WALL (     752 calls)
     h_psi        :    196.08s CPU    201.05s WALL (   38343 calls)
     s_psi        :     32.73s CPU     33.24s WALL (   78586 calls)
     g_psi        :      0.01s CPU      0.01s WALL (     700 calls)

     Called by h_psi:
     h_psi:calbec :     26.54s CPU     27.41s WALL (   38343 calls)
     vloc_psi     :    153.51s CPU    157.16s WALL (   38343 calls)
     add_vuspsi   :     15.69s CPU     16.13s WALL (   38343 calls)

     General routines
     calbec       :     60.76s CPU     62.11s WALL (   83214 calls)
     fft          :     11.07s CPU     11.17s WALL (    1979 calls)
     ffts         :      0.25s CPU      0.27s WALL (     690 calls)
     fftw         :    173.82s CPU    178.27s WALL (  590782 calls)
     interpolate  :      0.33s CPU      0.38s WALL (     222 calls)
     davcio       :      0.53s CPU      0.89s WALL (   14842 calls)

     Parallel routines

     PHONON       :   8m12.74s CPU   8m21.53s WALL

     INITIALIZATION: 
     phq_setup    :      0.07s CPU      0.09s WALL (       1 calls)
     phq_init     :      8.14s CPU      8.20s WALL (       1 calls)

     phq_init     :      8.14s CPU      8.20s WALL (       1 calls)
     set_drhoc    :      0.87s CPU      0.87s WALL (       3 calls)
     init_vloc    :      0.27s CPU      0.27s WALL (       2 calls)
     init_us_1    :      0.88s CPU      0.89s WALL (       2 calls)
     newd         :      0.15s CPU      0.19s WALL (       2 calls)
     dvanqq       :      2.19s CPU      2.19s WALL (       1 calls)
     drho         :      3.91s CPU      3.94s WALL (       1 calls)

     DYNAMICAL MATRIX:
     dynmat0      :      1.14s CPU      1.14s WALL (       1 calls)
     phqscf       :    474.67s CPU    483.13s WALL (       1 calls)
     dynmatrix    :      0.00s CPU      0.00s WALL (       1 calls)

     phqscf       :    474.67s CPU    483.13s WALL (       1 calls)
     solve_linter :    473.39s CPU    481.83s WALL (      12 calls)
     drhodv       :      1.27s CPU      1.28s WALL (      12 calls)

     dynmat0      :      1.14s CPU      1.14s WALL (       1 calls)
     dynmat_us    :      0.24s CPU      0.24s WALL (       1 calls)
     d2ionq       :      0.03s CPU      0.03s WALL (       1 calls)
     dynmatcc     :      0.74s CPU      0.74s WALL (       1 calls)

     dynmat_us    :      0.24s CPU      0.24s WALL (       1 calls)
     addusdynmat  :      0.00s CPU      0.00s WALL (       1 calls)

     phqscf       :    474.67s CPU    483.13s WALL (       1 calls)
     solve_linter :    473.39s CPU    481.83s WALL (      12 calls)

     solve_linter :    473.39s CPU    481.83s WALL (      12 calls)
     dvqpsi_us    :      2.39s CPU      2.49s WALL (     312 calls)
     ortho        :      5.90s CPU      6.02s WALL (    2704 calls)
     cgsolve      :    300.70s CPU    307.03s WALL (    2704 calls)
     incdrhoscf   :     16.00s CPU     16.50s WALL (    2704 calls)
     addusddens   :     19.12s CPU     19.13s WALL (     116 calls)
     vpsifft      :     11.69s CPU     12.16s WALL (    2392 calls)
     dv_of_drho   :      2.29s CPU      2.35s WALL (     104 calls)
     mix_pot      :      0.37s CPU      0.56s WALL (     104 calls)
     psymdvscf    :      3.66s CPU      3.70s WALL (     104 calls)
     newdq        :     14.00s CPU     14.01s WALL (     104 calls)
     adddvscf     :      1.30s CPU      1.35s WALL (    2392 calls)
     drhodvus     :      0.04s CPU      0.04s WALL (      12 calls)

     dvqpsi_us    :      2.39s CPU      2.49s WALL (     312 calls)
     dvqpsi_us_on :      0.73s CPU      0.75s WALL (     312 calls)

     cgsolve      :    300.70s CPU    307.03s WALL (    2704 calls)
     ch_psi       :    283.67s CPU    289.88s WALL (   37539 calls)

     ch_psi       :    283.67s CPU    289.88s WALL (   37539 calls)
     h_psi        :    196.08s CPU    201.05s WALL (   38343 calls)
     last         :     76.32s CPU     77.32s WALL (   37539 calls)

     h_psi        :    196.08s CPU    201.05s WALL (   38343 calls)
     add_vuspsi   :     15.69s CPU     16.13s WALL (   38343 calls)

     incdrhoscf   :     16.00s CPU     16.50s WALL (    2704 calls)
     addusdbec    :      2.87s CPU      2.96s WALL (    3016 calls)

     drhodvus     :      0.04s CPU      0.04s WALL (      12 calls)

      General routines
     calbec       :     60.76s CPU     62.11s WALL (   83214 calls)
     fft          :     11.07s CPU     11.17s WALL (    1979 calls)
     ffts         :      0.25s CPU      0.27s WALL (     690 calls)
     fftw         :    173.82s CPU    178.27s WALL (  590782 calls)
     davcio       :      0.53s CPU      0.89s WALL (   14842 calls)
     write_rec    :      0.11s CPU      0.22s WALL (     116 calls)


     PHONON       :   8m12.74s CPU   8m21.53s WALL


   This run was terminated on:  23:48:11  12May2023            

=------------------------------------------------------------------------------=
   JOB DONE.
=------------------------------------------------------------------------------=

     Program PHONON v.6.8 starts on 13May2023 at  0: 2:10 

     This program is part of the open-source Quantum ESPRESSO suite
     for quantum simulation of materials; please cite
         "P. Giannozzi et al., J. Phys.:Condens. Matter 21 395502 (2009);
         "P. Giannozzi et al., J. Phys.:Condens. Matter 29 465901 (2017);
         "P. Giannozzi et al., J. Chem. Phys. 152 154105 (2020);
          URL http://www.quantum-espresso.org", 
     in publications or presentations arising from this work. More details at
     http://www.quantum-espresso.org/quote

     Parallel version (MPI), running on     4 processors

     MPI processes distributed on     1 nodes
     R & G space division:  proc/nbgrp/npool/nimage =       4
     4313 MiB available memory on the printing compute node when the environment starts

     Reading input from ph.aln.in

     Reading xml data from directory:

     ./aln.save/
     file Al.pbe-n-kjpaw_psl.1.0.0.UPF: wavefunction(s)  3S 3P renormalized

     IMPORTANT: XC functional enforced from input :
     Exchange-correlation= PBE
                           (   1   4   3   4   0   0   0)
     Any further DFT definition will be discarded
     Please, verify this is what you really want


     Parallelization info
     --------------------
     sticks:   dense  smooth     PW     G-vecs:    dense   smooth      PW
     Min         289     118     37                12761     3416     577
     Max         290     119     38                12768     3423     582
     Sum        1159     475    151                51061    13681    2321

     Using Slab Decomposition

     Reading collected, re-writing distributed wavefunctions


     Dynamical matrices for ( 2, 2, 1)  uniform grid of q-points
     (   2 q-points):
       N         xq(1)         xq(2)         xq(3) 
       1   0.000000000   0.000000000   0.000000000
       2  -0.288675134  -0.500000003   0.000000000

     Calculation of q =    0.0000000   0.0000000   0.0000000

     phonons of Si mesh                                                         

     bravais-lattice index     =            0
     lattice parameter (alat)  =       5.9161  a.u.
     unit-cell volume          =     287.5046 (a.u.)^3
     number of atoms/cell      =            4
     number of atomic types    =            2
     kinetic-energy cut-off    =      50.0000  Ry
     charge density cut-off    =     480.0000  Ry
     convergence threshold     =      1.0E-16
     beta                      =       0.5000
     number of iterations used =            4
     Exchange-correlation= PBE
                           (   1   4   3   4   0   0   0)


     celldm(1)=    5.91610  celldm(2)=    0.00000  celldm(3)=    0.00000
     celldm(4)=    0.00000  celldm(5)=    0.00000  celldm(6)=    0.00000

     crystal axes: (cart. coord. in units of alat)
               a(1) = (  0.8660 -0.5000  0.0000 )  
               a(2) = (  0.0000  1.0000  0.0000 )  
               a(3) = (  0.0000  0.0000  1.6033 )  

     reciprocal axes: (cart. coord. in units 2 pi/alat)
               b(1) = (  1.1547  0.0000  0.0000 )  
               b(2) = (  0.5774  1.0000 -0.0000 )  
               b(3) = ( -0.0000  0.0000  0.6237 )  


     Atoms inside the unit cell: 

     Cartesian axes

     site n.  atom      mass           positions (alat units)
        1     Al  26.9815   tau(    1) = (    0.28868    0.50000   -0.00120  )
        2     Al  26.9815   tau(    2) = (    0.57735    0.00000    0.80043  )
        3     N   14.0067   tau(    3) = (    0.28868    0.50000    0.61045  )
        4     N   14.0067   tau(    4) = (    0.57735    0.00000    1.41208  )

     Computing dynamical matrix for 
                    q = (   0.0000000   0.0000000   0.0000000 )

     13 Sym.Ops. (with q -> -q+G )


     G cutoff =  425.5517  (  12768 G-vectors)     FFT grid: ( 45, 45, 72)
     G cutoff =  177.3132  (   3423 G-vectors)  smooth grid: ( 27, 27, 48)
     number of k points=    14

     PseudoPot. # 1 for Al read from file:
     ./pseudo/Al.pbe-n-kjpaw_psl.1.0.0.UPF
     MD5 check sum: cfc449ca30b5f3223ec38ddd88ac046d
     Pseudo is Projector augmented-wave + core cor, Zval =  3.0
     Generated using "atomic" code by A. Dal Corso  v.5.1
     Shape of augmentation charge: PSQ
     Using radial grid of 1135 points,  6 beta functions with: 
                l(1) =   0
                l(2) =   0
                l(3) =   1
                l(4) =   1
                l(5) =   2
                l(6) =   2
     Q(r) pseudized with 0 coefficients 


     PseudoPot. # 2 for N  read from file:
     ./pseudo/N.pbe-n-radius_5.UPF
     MD5 check sum: 16739722b17309cd8fe442a2ace49922
     Pseudo is Ultrasoft + core correction, Zval =  5.0
     Generated using "atomic" code by A. Dal Corso  v.5.1
     Using radial grid of 1085 points,  4 beta functions with: 
                l(1) =   0
                l(2) =   0
                l(3) =   1
                l(4) =   1
     Q(r) pseudized with 0 coefficients 


     Mode symmetry, C_6v (6mm)  point group:


     Electric field:
     Dielectric constant
     Born effective charges in two ways 


     Atomic displacements:
     There are    8 irreducible representations

     Representation     1      1 modes -  To be done

     Representation     2      1 modes -  To be done

     Representation     3      1 modes -  To be done

     Representation     4      1 modes -  To be done

     Representation     5      2 modes -  To be done

     Representation     6      2 modes -  To be done

     Representation     7      2 modes -  To be done

     Representation     8      2 modes -  To be done



     Alpha used in Ewald sum =   2.8000
     PHONON       :      7.75s CPU      7.83s WALL


     Electric Fields Calculation

      iter #   1 total cpu time :    25.4 secs   av.it.:   7.0
      thresh= 1.000E-02 alpha_mix =  0.500 |ddv_scf|^2 =  2.126E-08

      iter #   2 total cpu time :    35.3 secs   av.it.:  12.0
      thresh= 1.458E-05 alpha_mix =  0.500 |ddv_scf|^2 =  2.595E-09

      iter #   3 total cpu time :    44.6 secs   av.it.:  12.2
      thresh= 5.094E-06 alpha_mix =  0.500 |ddv_scf|^2 =  1.905E-10

      iter #   4 total cpu time :    53.8 secs   av.it.:  12.1
      thresh= 1.380E-06 alpha_mix =  0.500 |ddv_scf|^2 =  2.243E-11

      iter #   5 total cpu time :    62.9 secs   av.it.:  12.2
      thresh= 4.736E-07 alpha_mix =  0.500 |ddv_scf|^2 =  5.916E-13

      iter #   6 total cpu time :    71.7 secs   av.it.:  12.6
      thresh= 7.691E-08 alpha_mix =  0.500 |ddv_scf|^2 =  2.255E-15

      iter #   7 total cpu time :    80.1 secs   av.it.:  11.9
      thresh= 4.748E-09 alpha_mix =  0.500 |ddv_scf|^2 =  4.473E-16

      iter #   8 total cpu time :    89.0 secs   av.it.:  12.0
      thresh= 2.115E-09 alpha_mix =  0.500 |ddv_scf|^2 =  9.816E-18

     End of electric fields calculation

          Dielectric constant in cartesian axis 

          (       4.522745161      -0.000000000       0.000000000 )
          (      -0.000000000       4.522745208       0.000000000 )
          (      -0.000000000      -0.000000000       4.791824980 )

          Effective charges (d Force / dE) in cartesian axis

           atom      1   Al 
      Ex  (        2.52309        0.00000        0.00000 )
      Ey  (        0.00000        2.52309       -0.00000 )
      Ez  (        0.00000        0.00000        2.68108 )
           atom      2   Al 
      Ex  (        2.52309        0.00000        0.00000 )
      Ey  (        0.00000        2.52309        0.00000 )
      Ez  (        0.00000        0.00000        2.68108 )
           atom      3   N  
      Ex  (       -2.52526        0.00000       -0.00000 )
      Ey  (        0.00000       -2.52526       -0.00000 )
      Ez  (       -0.00000        0.00000       -2.69392 )
           atom      4   N  
      Ex  (       -2.52526       -0.00000       -0.00000 )
      Ey  (        0.00000       -2.52526       -0.00000 )
      Ez  (       -0.00000       -0.00000       -2.69392 )


     Representation #   1 mode #   1

     Self-consistent Calculation

      iter #   1 total cpu time :    98.9 secs   av.it.:   6.5
      thresh= 1.000E-02 alpha_mix =  0.500 |ddv_scf|^2 =  7.698E-07

      iter #   2 total cpu time :   101.6 secs   av.it.:  10.5
      thresh= 8.774E-05 alpha_mix =  0.500 |ddv_scf|^2 =  3.979E-08

      iter #   3 total cpu time :   104.4 secs   av.it.:  11.1
      thresh= 1.995E-05 alpha_mix =  0.500 |ddv_scf|^2 =  1.025E-10

      iter #   4 total cpu time :   107.2 secs   av.it.:  11.6
      thresh= 1.012E-06 alpha_mix =  0.500 |ddv_scf|^2 =  7.940E-12

      iter #   5 total cpu time :   110.0 secs   av.it.:  11.7
      thresh= 2.818E-07 alpha_mix =  0.500 |ddv_scf|^2 =  2.394E-13

      iter #   6 total cpu time :   112.8 secs   av.it.:  11.1
      thresh= 4.893E-08 alpha_mix =  0.500 |ddv_scf|^2 =  2.377E-14

      iter #   7 total cpu time :   115.5 secs   av.it.:  11.1
      thresh= 1.542E-08 alpha_mix =  0.500 |ddv_scf|^2 =  7.132E-16

      iter #   8 total cpu time :   118.2 secs   av.it.:  10.5
      thresh= 2.671E-09 alpha_mix =  0.500 |ddv_scf|^2 =  5.651E-17

     End of self-consistent calculation

     Convergence has been achieved 


     Representation #   2 mode #   2

     Self-consistent Calculation

      iter #   1 total cpu time :   120.7 secs   av.it.:   4.5
      thresh= 1.000E-02 alpha_mix =  0.500 |ddv_scf|^2 =  1.483E-08

      iter #   2 total cpu time :   123.3 secs   av.it.:   9.9
      thresh= 1.218E-05 alpha_mix =  0.500 |ddv_scf|^2 =  3.359E-09

      iter #   3 total cpu time :   126.1 secs   av.it.:  10.7
      thresh= 5.796E-06 alpha_mix =  0.500 |ddv_scf|^2 =  6.817E-11

      iter #   4 total cpu time :   128.8 secs   av.it.:  11.2
      thresh= 8.256E-07 alpha_mix =  0.500 |ddv_scf|^2 =  1.211E-11

      iter #   5 total cpu time :   131.6 secs   av.it.:  10.9
      thresh= 3.480E-07 alpha_mix =  0.500 |ddv_scf|^2 =  8.284E-13

      iter #   6 total cpu time :   134.4 secs   av.it.:  11.6
      thresh= 9.102E-08 alpha_mix =  0.500 |ddv_scf|^2 =  1.299E-13

      iter #   7 total cpu time :   137.2 secs   av.it.:  11.3
      thresh= 3.605E-08 alpha_mix =  0.500 |ddv_scf|^2 =  1.652E-16

      iter #   8 total cpu time :   139.8 secs   av.it.:  10.4
      thresh= 1.285E-09 alpha_mix =  0.500 |ddv_scf|^2 =  3.867E-17

     End of self-consistent calculation

     Convergence has been achieved 


     Representation #   3 mode #   3

     Self-consistent Calculation

      iter #   1 total cpu time :   142.5 secs   av.it.:   5.8
      thresh= 1.000E-02 alpha_mix =  0.500 |ddv_scf|^2 =  1.211E-06

      iter #   2 total cpu time :   145.3 secs   av.it.:  11.0
      thresh= 1.100E-04 alpha_mix =  0.500 |ddv_scf|^2 =  2.532E-07

      iter #   3 total cpu time :   148.0 secs   av.it.:  10.9
      thresh= 5.032E-05 alpha_mix =  0.500 |ddv_scf|^2 =  1.187E-08

      iter #   4 total cpu time :   150.7 secs   av.it.:  10.3
      thresh= 1.089E-05 alpha_mix =  0.500 |ddv_scf|^2 =  1.004E-09

      iter #   5 total cpu time :   153.4 secs   av.it.:  10.6
      thresh= 3.169E-06 alpha_mix =  0.500 |ddv_scf|^2 =  7.518E-11

      iter #   6 total cpu time :   156.1 secs   av.it.:  10.8
      thresh= 8.671E-07 alpha_mix =  0.500 |ddv_scf|^2 =  6.447E-13

      iter #   7 total cpu time :   158.7 secs   av.it.:   9.1
      thresh= 8.030E-08 alpha_mix =  0.500 |ddv_scf|^2 =  1.581E-13

      iter #   8 total cpu time :   161.7 secs   av.it.:  10.2
      thresh= 3.976E-08 alpha_mix =  0.500 |ddv_scf|^2 =  1.498E-15

      iter #   9 total cpu time :   164.8 secs   av.it.:  10.6
      thresh= 3.870E-09 alpha_mix =  0.500 |ddv_scf|^2 =  3.541E-17

     End of self-consistent calculation

     Convergence has been achieved 


     Representation #   4 mode #   4

     Self-consistent Calculation

      iter #   1 total cpu time :   168.0 secs   av.it.:   6.9
      thresh= 1.000E-02 alpha_mix =  0.500 |ddv_scf|^2 =  1.687E-05

      iter #   2 total cpu time :   171.0 secs   av.it.:  10.2
      thresh= 4.108E-04 alpha_mix =  0.500 |ddv_scf|^2 =  1.873E-06

      iter #   3 total cpu time :   174.0 secs   av.it.:  10.1
      thresh= 1.369E-04 alpha_mix =  0.500 |ddv_scf|^2 =  5.931E-09

      iter #   4 total cpu time :   177.1 secs   av.it.:  11.1
      thresh= 7.702E-06 alpha_mix =  0.500 |ddv_scf|^2 =  1.541E-09

      iter #   5 total cpu time :   180.2 secs   av.it.:  11.0
      thresh= 3.925E-06 alpha_mix =  0.500 |ddv_scf|^2 =  2.990E-11

      iter #   6 total cpu time :   183.3 secs   av.it.:  10.9
      thresh= 5.468E-07 alpha_mix =  0.500 |ddv_scf|^2 =  9.956E-13

      iter #   7 total cpu time :   186.4 secs   av.it.:  10.9
      thresh= 9.978E-08 alpha_mix =  0.500 |ddv_scf|^2 =  2.073E-13

      iter #   8 total cpu time :   189.5 secs   av.it.:  10.9
      thresh= 4.553E-08 alpha_mix =  0.500 |ddv_scf|^2 =  1.218E-15

      iter #   9 total cpu time :   192.7 secs   av.it.:  10.6
      thresh= 3.491E-09 alpha_mix =  0.500 |ddv_scf|^2 =  2.633E-16

      iter #  10 total cpu time :   196.0 secs   av.it.:  11.0
      thresh= 1.623E-09 alpha_mix =  0.500 |ddv_scf|^2 =  1.404E-17

     End of self-consistent calculation

     Convergence has been achieved 


     Representation #   5 modes #   5   6

     Self-consistent Calculation

      iter #   1 total cpu time :   201.8 secs   av.it.:   7.0
      thresh= 1.000E-02 alpha_mix =  0.500 |ddv_scf|^2 =  2.031E-07

      iter #   2 total cpu time :   208.5 secs   av.it.:  12.2
      thresh= 4.507E-05 alpha_mix =  0.500 |ddv_scf|^2 =  1.019E-08

      iter #   3 total cpu time :   215.2 secs   av.it.:  12.7
      thresh= 1.009E-05 alpha_mix =  0.500 |ddv_scf|^2 =  2.452E-11

      iter #   4 total cpu time :   222.1 secs   av.it.:  13.0
      thresh= 4.952E-07 alpha_mix =  0.500 |ddv_scf|^2 =  1.896E-13

      iter #   5 total cpu time :   228.6 secs   av.it.:  11.7
      thresh= 4.354E-08 alpha_mix =  0.500 |ddv_scf|^2 =  3.476E-14

      iter #   6 total cpu time :   235.4 secs   av.it.:  12.6
      thresh= 1.864E-08 alpha_mix =  0.500 |ddv_scf|^2 =  4.295E-16

      iter #   7 total cpu time :   242.0 secs   av.it.:  12.1
      thresh= 2.072E-09 alpha_mix =  0.500 |ddv_scf|^2 =  2.501E-18

     End of self-consistent calculation

     Convergence has been achieved 


     Representation #   6 modes #   7   8

     Self-consistent Calculation

      iter #   1 total cpu time :   247.8 secs   av.it.:   4.9
      thresh= 1.000E-02 alpha_mix =  0.500 |ddv_scf|^2 =  3.759E-09

      iter #   2 total cpu time :   254.0 secs   av.it.:  11.4
      thresh= 6.131E-06 alpha_mix =  0.500 |ddv_scf|^2 =  8.516E-10

      iter #   3 total cpu time :   260.5 secs   av.it.:  12.1
      thresh= 2.918E-06 alpha_mix =  0.500 |ddv_scf|^2 =  1.273E-11

      iter #   4 total cpu time :   265.8 secs   av.it.:  12.5
      thresh= 3.569E-07 alpha_mix =  0.500 |ddv_scf|^2 =  6.094E-13

      iter #   5 total cpu time :   269.8 secs   av.it.:  13.0
      thresh= 7.807E-08 alpha_mix =  0.500 |ddv_scf|^2 =  1.540E-13

      iter #   6 total cpu time :   273.7 secs   av.it.:  12.5
      thresh= 3.924E-08 alpha_mix =  0.500 |ddv_scf|^2 =  7.312E-17

     End of self-consistent calculation

     Convergence has been achieved 


     Representation #   7 modes #   9  10

     Self-consistent Calculation

      iter #   1 total cpu time :   277.2 secs   av.it.:   5.0
      thresh= 1.000E-02 alpha_mix =  0.500 |ddv_scf|^2 =  4.321E-09

      iter #   2 total cpu time :   281.0 secs   av.it.:  11.8
      thresh= 6.573E-06 alpha_mix =  0.500 |ddv_scf|^2 =  8.733E-10

      iter #   3 total cpu time :   284.8 secs   av.it.:  12.1
      thresh= 2.955E-06 alpha_mix =  0.500 |ddv_scf|^2 =  2.788E-11

      iter #   4 total cpu time :   288.7 secs   av.it.:  12.2
      thresh= 5.280E-07 alpha_mix =  0.500 |ddv_scf|^2 =  9.622E-13

      iter #   5 total cpu time :   292.5 secs   av.it.:  12.0
      thresh= 9.809E-08 alpha_mix =  0.500 |ddv_scf|^2 =  5.062E-14

      iter #   6 total cpu time :   296.5 secs   av.it.:  12.6
      thresh= 2.250E-08 alpha_mix =  0.500 |ddv_scf|^2 =  1.356E-16

      iter #   7 total cpu time :   300.7 secs   av.it.:  13.2
      thresh= 1.164E-09 alpha_mix =  0.500 |ddv_scf|^2 =  1.859E-18

     End of self-consistent calculation

     Convergence has been achieved 


     Representation #   8 modes #  11  12

     Self-consistent Calculation

      iter #   1 total cpu time :   304.7 secs   av.it.:   6.9
      thresh= 1.000E-02 alpha_mix =  0.500 |ddv_scf|^2 =  2.460E-07

      iter #   2 total cpu time :   308.7 secs   av.it.:  12.2
      thresh= 4.960E-05 alpha_mix =  0.500 |ddv_scf|^2 =  1.073E-08

      iter #   3 total cpu time :   312.8 secs   av.it.:  12.6
      thresh= 1.036E-05 alpha_mix =  0.500 |ddv_scf|^2 =  2.325E-11

      iter #   4 total cpu time :   317.0 secs   av.it.:  13.0
      thresh= 4.822E-07 alpha_mix =  0.500 |ddv_scf|^2 =  2.417E-13

      iter #   5 total cpu time :   321.0 secs   av.it.:  12.0
      thresh= 4.916E-08 alpha_mix =  0.500 |ddv_scf|^2 =  3.800E-14

      iter #   6 total cpu time :   325.2 secs   av.it.:  12.8
      thresh= 1.949E-08 alpha_mix =  0.500 |ddv_scf|^2 =  6.524E-16

      iter #   7 total cpu time :   329.3 secs   av.it.:  12.5
      thresh= 2.554E-09 alpha_mix =  0.500 |ddv_scf|^2 =  3.809E-18

     End of self-consistent calculation

     Convergence has been achieved 

     Number of q in the star =    1
     List of q in the star:
          1   0.000000000   0.000000000   0.000000000

          Dielectric constant in cartesian axis 

          (       4.522745161      -0.000000000       0.000000000 )
          (      -0.000000000       4.522745208       0.000000000 )
          (      -0.000000000      -0.000000000       4.791824980 )

          Effective charges (d Force / dE) in cartesian axis

           atom      1   Al 
      Ex  (        2.52309        0.00000        0.00000 )
      Ey  (        0.00000        2.52309       -0.00000 )
      Ez  (        0.00000        0.00000        2.68108 )
           atom      2   Al 
      Ex  (        2.52309        0.00000        0.00000 )
      Ey  (        0.00000        2.52309        0.00000 )
      Ez  (        0.00000        0.00000        2.68108 )
           atom      3   N  
      Ex  (       -2.52526        0.00000       -0.00000 )
      Ey  (        0.00000       -2.52526       -0.00000 )
      Ez  (       -0.00000        0.00000       -2.69392 )
           atom      4   N  
      Ex  (       -2.52526       -0.00000       -0.00000 )
      Ey  (        0.00000       -2.52526       -0.00000 )
      Ez  (       -0.00000       -0.00000       -2.69392 )

          Effective charges (d P / du) in cartesian axis 

           atom      1   Al 
      Px  (        2.52306        0.00000        0.00000 )
      Py  (        0.00000        2.52306       -0.00000 )
      Pz  (       -0.00000       -0.00000        2.68106 )
           atom      2   Al 
      Px  (        2.52306       -0.00000       -0.00000 )
      Py  (       -0.00000        2.52306        0.00000 )
      Pz  (        0.00000       -0.00000        2.68106 )
           atom      3   N  
      Px  (       -2.52528       -0.00000       -0.00000 )
      Py  (        0.00000       -2.52528        0.00000 )
      Pz  (        0.00000        0.00000       -2.69400 )
           atom      4   N  
      Px  (       -2.52528       -0.00000       -0.00000 )
      Py  (       -0.00000       -2.52528       -0.00000 )
      Pz  (       -0.00000        0.00000       -2.69400 )

     Diagonalizing the dynamical matrix

     q = (    0.000000000   0.000000000   0.000000000 ) 

 **************************************************************************
     freq (    1) =      -0.191960 [THz] =      -6.403082 [cm-1]
     freq (    2) =      -0.125075 [THz] =      -4.172054 [cm-1]
     freq (    3) =      -0.125075 [THz] =      -4.172054 [cm-1]
     freq (    4) =       7.085896 [THz] =     236.360065 [cm-1]
     freq (    5) =       7.085897 [THz] =     236.360067 [cm-1]
     freq (    6) =      16.116114 [THz] =     537.575687 [cm-1]
     freq (    7) =      17.960163 [THz] =     599.086559 [cm-1]
     freq (    8) =      19.197770 [THz] =     640.368671 [cm-1]
     freq (    9) =      19.197770 [THz] =     640.368675 [cm-1]
     freq (   10) =      19.584734 [THz] =     653.276416 [cm-1]
     freq (   11) =      19.584734 [THz] =     653.276420 [cm-1]
     freq (   12) =      21.234046 [THz] =     708.291545 [cm-1]
 **************************************************************************

     Mode symmetry, C_6v (6mm)  point group:

     freq (   1-   1) =         -6.4  [cm-1]   --> A_1             I+R
     freq (   2-   3) =         -4.2  [cm-1]   --> E_1             I+R
     freq (   4-   5) =        236.4  [cm-1]   --> E_2             R  
     freq (   6-   6) =        537.6  [cm-1]   --> B_2                
     freq (   7-   7) =        599.1  [cm-1]   --> A_1             I+R
     freq (   8-   9) =        640.4  [cm-1]   --> E_2             R  
     freq (  10-  11) =        653.3  [cm-1]   --> E_1             I+R
     freq (  12-  12) =        708.3  [cm-1]   --> B_2                

     Calculation of q =   -0.2886751  -0.5000000   0.0000000

     Subspace diagonalization in iterative solution of the eigenvalue problem:
     a serial algorithm will be used


     Parallelization info
     --------------------
     sticks:   dense  smooth     PW     G-vecs:    dense   smooth      PW
     Min         289     118     40                12761     3416     694
     Max         290     119     41                12768     3423     699
     Sum        1159     475    163                51061    13681    2791

     Using Slab Decomposition


     Title: 
     phonons of Si mesh                                                         


     bravais-lattice index     =            0
     lattice parameter (alat)  =       5.9161  a.u.
     unit-cell volume          =     287.5046 (a.u.)^3
     number of atoms/cell      =            4
     number of atomic types    =            2
     number of electrons       =        16.00
     number of Kohn-Sham states=            8
     kinetic-energy cutoff     =      50.0000  Ry
     charge density cutoff     =     480.0000  Ry
     Exchange-correlation= PBE
                           (   1   4   3   4   0   0   0)

     celldm(1)=   5.916099  celldm(2)=   0.000000  celldm(3)=   0.000000
     celldm(4)=   0.000000  celldm(5)=   0.000000  celldm(6)=   0.000000

     crystal axes: (cart. coord. in units of alat)
               a(1) = (   0.866025  -0.500000   0.000000 )  
               a(2) = (   0.000000   1.000000   0.000000 )  
               a(3) = (   0.000000   0.000000   1.603275 )  

     reciprocal axes: (cart. coord. in units 2 pi/alat)
               b(1) = (  1.154701  0.000000  0.000000 )  
               b(2) = (  0.577350  1.000000 -0.000000 )  
               b(3) = ( -0.000000  0.000000  0.623723 )  


     PseudoPot. # 1 for Al read from file:
     ./pseudo/Al.pbe-n-kjpaw_psl.1.0.0.UPF
     MD5 check sum: cfc449ca30b5f3223ec38ddd88ac046d
     Pseudo is Projector augmented-wave + core cor, Zval =  3.0
     Generated using "atomic" code by A. Dal Corso  v.5.1
     Shape of augmentation charge: PSQ
     Using radial grid of 1135 points,  6 beta functions with: 
                l(1) =   0
                l(2) =   0
                l(3) =   1
                l(4) =   1
                l(5) =   2
                l(6) =   2
     Q(r) pseudized with 0 coefficients 


     PseudoPot. # 2 for N  read from file:
     ./pseudo/N.pbe-n-radius_5.UPF
     MD5 check sum: 16739722b17309cd8fe442a2ace49922
     Pseudo is Ultrasoft + core correction, Zval =  5.0
     Generated using "atomic" code by A. Dal Corso  v.5.1
     Using radial grid of 1085 points,  4 beta functions with: 
                l(1) =   0
                l(2) =   0
                l(3) =   1
                l(4) =   1
     Q(r) pseudized with 0 coefficients 


     atomic species   valence    mass     pseudopotential
        Al             3.00    26.98154     Al( 1.00)
        N              5.00    14.00670     N ( 1.00)

     12 Sym. Ops. (no inversion) found



   Cartesian axes

     site n.     atom                  positions (alat units)
         1           Al  tau(   1) = (   0.2886751   0.5000000  -0.0012027  )
         2           Al  tau(   2) = (   0.5773503   0.0000000   0.8004348  )
         3           N   tau(   3) = (   0.2886751   0.5000000   0.6104472  )
         4           N   tau(   4) = (   0.5773503   0.0000000   1.4120847  )

     number of k points=    52
                       cart. coord. in units 2pi/alat
        k(    1) = (   0.0000000   0.0000000   0.0000000), wk =   0.0185185
        k(    2) = (  -0.2886751  -0.5000000   0.0000000), wk =   0.0000000
        k(    3) = (   0.0000000   0.0000000   0.2079078), wk =   0.0370370
        k(    4) = (  -0.2886751  -0.5000000   0.2079078), wk =   0.0000000
        k(    5) = (   0.0962250   0.1666667   0.0000000), wk =   0.0370370
        k(    6) = (  -0.1924501  -0.3333333   0.0000000), wk =   0.0000000
        k(    7) = (   0.0962250   0.1666667   0.2079078), wk =   0.0740741
        k(    8) = (  -0.1924501  -0.3333333   0.2079078), wk =   0.0000000
        k(    9) = (   0.1924501   0.3333333   0.0000000), wk =   0.0370370
        k(   10) = (  -0.0962250  -0.1666667   0.0000000), wk =   0.0000000
        k(   11) = (   0.1924501   0.3333333   0.2079078), wk =   0.0740741
        k(   12) = (  -0.0962250  -0.1666667   0.2079078), wk =   0.0000000
        k(   13) = (  -0.2886751  -0.5000000   0.0000000), wk =   0.0185185
        k(   14) = (  -0.5773503  -1.0000000   0.0000000), wk =   0.0000000
        k(   15) = (  -0.2886751  -0.5000000   0.2079078), wk =   0.0370370
        k(   16) = (  -0.5773503  -1.0000000   0.2079078), wk =   0.0000000
        k(   17) = (   0.2886751   0.1666667   0.0000000), wk =   0.0740741
        k(   18) = (   0.0000000  -0.3333333   0.0000000), wk =   0.0000000
        k(   19) = (   0.2886751   0.1666667   0.2079078), wk =   0.1481481
        k(   20) = (   0.0000000  -0.3333333   0.2079078), wk =   0.0000000
        k(   21) = (   0.3849002   0.3333333   0.0000000), wk =   0.0740741
        k(   22) = (   0.0962250  -0.1666667   0.0000000), wk =   0.0000000
        k(   23) = (   0.3849002   0.3333333   0.2079078), wk =   0.1481481
        k(   24) = (   0.0962250  -0.1666667   0.2079078), wk =   0.0000000
        k(   25) = (   0.5773503   0.3333333   0.0000000), wk =   0.0370370
        k(   26) = (   0.2886751  -0.1666667   0.0000000), wk =   0.0000000
        k(   27) = (   0.5773503   0.3333333   0.2079078), wk =   0.0740741
        k(   28) = (   0.2886751  -0.1666667   0.2079078), wk =   0.0000000
        k(   29) = (  -0.1924501   0.0000000   0.0000000), wk =   0.0740741
        k(   30) = (  -0.4811252  -0.5000000   0.0000000), wk =   0.0000000
        k(   31) = (  -0.1924501   0.0000000   0.2079078), wk =   0.1481481
        k(   32) = (  -0.4811252  -0.5000000   0.2079078), wk =   0.0000000
        k(   33) = (  -0.3849002   0.0000000   0.0000000), wk =   0.0740741
        k(   34) = (  -0.6735753  -0.5000000   0.0000000), wk =   0.0000000
        k(   35) = (  -0.3849002   0.0000000   0.2079078), wk =   0.1481481
        k(   36) = (  -0.6735753  -0.5000000   0.2079078), wk =   0.0000000
        k(   37) = (   0.5773503  -0.0000000   0.0000000), wk =   0.0370370
        k(   38) = (   0.2886751  -0.5000000   0.0000000), wk =   0.0000000
        k(   39) = (   0.5773503  -0.0000000   0.2079078), wk =   0.0740741
        k(   40) = (   0.2886751  -0.5000000   0.2079078), wk =   0.0000000
        k(   41) = (  -0.2886751   0.1666667   0.0000000), wk =   0.0370370
        k(   42) = (  -0.5773503  -0.3333333   0.0000000), wk =   0.0000000
        k(   43) = (  -0.2886751   0.1666667   0.2079078), wk =   0.0740741
        k(   44) = (  -0.5773503  -0.3333333   0.2079078), wk =   0.0000000
        k(   45) = (  -0.4811252   0.1666667   0.0000000), wk =   0.0740741
        k(   46) = (  -0.7698004  -0.3333333   0.0000000), wk =   0.0000000
        k(   47) = (   0.0962250  -0.5000000   0.0000000), wk =   0.0740741
        k(   48) = (  -0.1924501  -1.0000000   0.0000000), wk =   0.0000000
        k(   49) = (  -0.4811252   0.1666667   0.2079078), wk =   0.1481481
        k(   50) = (  -0.7698004  -0.3333333   0.2079078), wk =   0.0000000
        k(   51) = (   0.0962250  -0.5000000   0.2079078), wk =   0.1481481
        k(   52) = (  -0.1924501  -1.0000000   0.2079078), wk =   0.0000000

     Dense  grid:    51061 G-vectors     FFT dimensions: (  45,  45,  72)

     Smooth grid:    13681 G-vectors     FFT dimensions: (  27,  27,  48)

     Estimated max dynamical RAM per process >      45.26 MB

     Estimated total dynamical RAM >     181.03 MB

     The potential is recalculated from file :
     ./_ph0/aln.save/charge-density

     Starting wfcs are   16 atomic wfcs
     Checking if some PAW data can be deallocated... 

     Band Structure Calculation
     Davidson diagonalization with overlap

     ethr =  6.25E-11,  avg # of iterations = 13.5

     total cpu time spent up to now is        5.1 secs

     End of band structure calculation

          k = 0.0000 0.0000 0.0000 (  1737 PWs)   bands (ev):

    -8.1603  -6.0790   0.9979   6.0599   6.0599   6.7022   6.7022   6.9032

          k =-0.2887-0.5000 0.0000 (  1694 PWs)   bands (ev):

    -6.2476  -5.5736   1.5299   2.7840   3.6103   4.8514   5.1611   6.2232

          k = 0.0000 0.0000 0.2079 (  1720 PWs)   bands (ev):

    -7.7562  -6.7544   2.3090   5.0200   6.2135   6.2135   6.5345   6.5345

          k =-0.2887-0.5000 0.2079 (  1714 PWs)   bands (ev):

    -6.0635  -5.7210   1.2502   1.8192   4.7965   5.1433   5.8197   5.8396

          k = 0.0962 0.1667 0.0000 (  1739 PWs)   bands (ev):

    -7.8214  -5.8959   1.4082   4.6565   5.4152   5.6749   6.6205   6.7338

          k =-0.1925-0.3333 0.0000 (  1702 PWs)   bands (ev):

    -6.9490  -5.5712   2.4510   2.5549   3.6140   5.0939   6.0490   6.3621

          k = 0.0962 0.1667 0.2079 (  1719 PWs)   bands (ev):

    -7.4379  -6.5042   2.4541   4.3415   5.1630   5.8892   6.1272   6.3597

          k =-0.1925-0.3333 0.2079 (  1710 PWs)   bands (ev):

    -6.6440  -5.9598   1.9771   2.6613   4.4170   5.3677   5.9945   6.0012

          k = 0.1925 0.3333 0.0000 (  1702 PWs)   bands (ev):

    -6.9490  -5.5712   2.4510   2.5549   3.6140   5.0939   6.0490   6.3621

          k =-0.0962-0.1667 0.0000 (  1739 PWs)   bands (ev):

    -7.8214  -5.8959   1.4082   4.6565   5.4152   5.6749   6.6205   6.7338

          k = 0.1925 0.3333 0.2079 (  1710 PWs)   bands (ev):

    -6.6440  -5.9598   1.9771   2.6613   4.4170   5.3677   5.9945   6.0012

          k =-0.0962-0.1667 0.2079 (  1719 PWs)   bands (ev):

    -7.4379  -6.5042   2.4541   4.3415   5.1630   5.8892   6.1272   6.3597

          k =-0.2887-0.5000 0.0000 (  1694 PWs)   bands (ev):

    -6.2476  -5.5736   1.5299   2.7840   3.6103   4.8514   5.1611   6.2232

          k =-0.5774-1.0000 0.0000 (  1737 PWs)   bands (ev):

    -8.1603  -6.0790   0.9979   6.0599   6.0599   6.7022   6.7022   6.9032

          k =-0.2887-0.5000 0.2079 (  1714 PWs)   bands (ev):

    -6.0635  -5.7210   1.2502   1.8192   4.7965   5.1433   5.8197   5.8396

          k =-0.5774-1.0000 0.2079 (  1720 PWs)   bands (ev):

    -7.7562  -6.7544   2.3090   5.0200   6.2135   6.2135   6.5345   6.5345

          k = 0.2887 0.1667 0.0000 (  1713 PWs)   bands (ev):

    -7.2095  -5.6354   2.1809   3.5664   3.5694   5.2243   6.0223   6.3214

          k = 0.0000-0.3333 0.0000 (  1713 PWs)   bands (ev):

    -7.2095  -5.6354   2.1809   3.5664   3.5694   5.2243   6.0223   6.3214

          k = 0.2887 0.1667 0.2079 (  1707 PWs)   bands (ev):

    -6.8753  -6.1001   2.3866   3.1683   4.6085   5.0057   5.6525   6.2282

          k = 0.0000-0.3333 0.2079 (  1707 PWs)   bands (ev):

    -6.8753  -6.1001   2.3866   3.1683   4.6085   5.0057   5.6525   6.2282

          k = 0.3849 0.3333 0.0000 (  1721 PWs)   bands (ev):

    -6.3176  -5.5145   2.0187   3.0193   3.4724   4.1544   5.3976   5.4799

          k = 0.0962-0.1667 0.0000 (  1739 PWs)   bands (ev):

    -7.8214  -5.8959   1.4082   4.6565   5.4152   5.6749   6.6205   6.7338

          k = 0.3849 0.3333 0.2079 (  1715 PWs)   bands (ev):

    -6.1108  -5.7049   1.7271   2.1715   3.9646   4.7626   5.2305   6.1131

          k = 0.0962-0.1667 0.2079 (  1719 PWs)   bands (ev):

    -7.4379  -6.5042   2.4541   4.3415   5.1630   5.8892   6.1272   6.3597

          k = 0.5774 0.3333 0.0000 (  1722 PWs)   bands (ev):

    -5.7314  -5.7314   2.1788   3.1513   3.1513   4.4931   4.5580   4.5580

          k = 0.2887-0.1667 0.0000 (  1713 PWs)   bands (ev):

    -7.2095  -5.6354   2.1809   3.5664   3.5694   5.2243   6.0223   6.3214

          k = 0.5774 0.3333 0.2079 (  1704 PWs)   bands (ev):

    -5.6989  -5.6989   2.3074   2.3074   2.6140   3.7191   5.7879   5.7879

          k = 0.2887-0.1667 0.2079 (  1707 PWs)   bands (ev):

    -6.8753  -6.1001   2.3866   3.1683   4.6085   5.0057   5.6525   6.2282

          k =-0.1925 0.0000 0.0000 (  1739 PWs)   bands (ev):

    -7.8214  -5.8959   1.4082   4.6565   5.4152   5.6749   6.6205   6.7338

          k =-0.4811-0.5000 0.0000 (  1721 PWs)   bands (ev):

    -6.3176  -5.5145   2.0187   3.0193   3.4724   4.1544   5.3976   5.4799

          k =-0.1925 0.0000 0.2079 (  1719 PWs)   bands (ev):

    -7.4379  -6.5042   2.4541   4.3415   5.1630   5.8892   6.1272   6.3597

          k =-0.4811-0.5000 0.2079 (  1715 PWs)   bands (ev):

    -6.1108  -5.7049   1.7271   2.1715   3.9646   4.7626   5.2305   6.1131

          k =-0.3849 0.0000 0.0000 (  1702 PWs)   bands (ev):

    -6.9490  -5.5712   2.4510   2.5549   3.6140   5.0939   6.0490   6.3621

          k =-0.6736-0.5000 0.0000 (  1721 PWs)   bands (ev):

    -6.3176  -5.5145   2.0187   3.0193   3.4724   4.1544   5.3976   5.4799

          k =-0.3849 0.0000 0.2079 (  1710 PWs)   bands (ev):

    -6.6440  -5.9598   1.9771   2.6613   4.4170   5.3677   5.9945   6.0012

          k =-0.6736-0.5000 0.2079 (  1715 PWs)   bands (ev):

    -6.1108  -5.7049   1.7271   2.1715   3.9646   4.7626   5.2305   6.1131

          k = 0.5774-0.0000 0.0000 (  1694 PWs)   bands (ev):

    -6.2476  -5.5736   1.5299   2.7840   3.6103   4.8514   5.1611   6.2232

          k = 0.2887-0.5000 0.0000 (  1694 PWs)   bands (ev):

    -6.2476  -5.5736   1.5299   2.7840   3.6103   4.8514   5.1611   6.2232

          k = 0.5774-0.0000 0.2079 (  1714 PWs)   bands (ev):

    -6.0635  -5.7210   1.2502   1.8192   4.7965   5.1433   5.8197   5.8396

          k = 0.2887-0.5000 0.2079 (  1714 PWs)   bands (ev):

    -6.0635  -5.7210   1.2502   1.8192   4.7965   5.1433   5.8197   5.8396

          k =-0.2887 0.1667 0.0000 (  1713 PWs)   bands (ev):

    -7.2095  -5.6354   2.1809   3.5664   3.5694   5.2243   6.0223   6.3214

          k =-0.5774-0.3333 0.0000 (  1722 PWs)   bands (ev):

[...]
      thresh= 9.456E-07 alpha_mix =  0.500 |ddv_scf|^2 =  1.866E-12

      iter #   7 total cpu time :   417.3 secs   av.it.:  11.6
      thresh= 1.366E-07 alpha_mix =  0.500 |ddv_scf|^2 =  3.814E-13

      iter #   8 total cpu time :   420.4 secs   av.it.:  11.8
      thresh= 6.175E-08 alpha_mix =  0.500 |ddv_scf|^2 =  4.386E-15

      iter #   9 total cpu time :   423.6 secs   av.it.:  11.8
      thresh= 6.623E-09 alpha_mix =  0.500 |ddv_scf|^2 =  2.142E-16

      iter #  10 total cpu time :   426.8 secs   av.it.:  12.1
      thresh= 1.464E-09 alpha_mix =  0.500 |ddv_scf|^2 =  1.921E-17

     End of self-consistent calculation

     Convergence has been achieved 


     Representation #   4 mode #   4

     Self-consistent Calculation

      iter #   1 total cpu time :   429.2 secs   av.it.:   6.2
      thresh= 1.000E-02 alpha_mix =  0.500 |ddv_scf|^2 =  1.373E-06

      iter #   2 total cpu time :   432.3 secs   av.it.:  11.7
      thresh= 1.172E-04 alpha_mix =  0.500 |ddv_scf|^2 =  6.094E-07

      iter #   3 total cpu time :   435.2 secs   av.it.:  11.4
      thresh= 7.806E-05 alpha_mix =  0.500 |ddv_scf|^2 =  6.777E-09

      iter #   4 total cpu time :   438.1 secs   av.it.:  11.5
      thresh= 8.232E-06 alpha_mix =  0.500 |ddv_scf|^2 =  6.025E-10

      iter #   5 total cpu time :   441.0 secs   av.it.:  11.3
      thresh= 2.455E-06 alpha_mix =  0.500 |ddv_scf|^2 =  1.888E-11

      iter #   6 total cpu time :   443.9 secs   av.it.:  11.2
      thresh= 4.345E-07 alpha_mix =  0.500 |ddv_scf|^2 =  5.955E-13

      iter #   7 total cpu time :   446.8 secs   av.it.:  10.8
      thresh= 7.717E-08 alpha_mix =  0.500 |ddv_scf|^2 =  7.479E-14

      iter #   8 total cpu time :   449.7 secs   av.it.:  11.5
      thresh= 2.735E-08 alpha_mix =  0.500 |ddv_scf|^2 =  1.344E-16

      iter #   9 total cpu time :   452.7 secs   av.it.:  11.7
      thresh= 1.159E-09 alpha_mix =  0.500 |ddv_scf|^2 =  2.889E-17

     End of self-consistent calculation

     Convergence has been achieved 


     Representation #   5 mode #   5

     Self-consistent Calculation

      iter #   1 total cpu time :   455.1 secs   av.it.:   6.8
      thresh= 1.000E-02 alpha_mix =  0.500 |ddv_scf|^2 =  9.563E-07

      iter #   2 total cpu time :   458.0 secs   av.it.:  11.1
      thresh= 9.779E-05 alpha_mix =  0.500 |ddv_scf|^2 =  4.245E-08

      iter #   3 total cpu time :   460.9 secs   av.it.:  11.7
      thresh= 2.060E-05 alpha_mix =  0.500 |ddv_scf|^2 =  9.159E-11

      iter #   4 total cpu time :   464.0 secs   av.it.:  12.0
      thresh= 9.570E-07 alpha_mix =  0.500 |ddv_scf|^2 =  1.040E-12

      iter #   5 total cpu time :   466.9 secs   av.it.:  10.8
      thresh= 1.020E-07 alpha_mix =  0.500 |ddv_scf|^2 =  1.588E-13

      iter #   6 total cpu time :   470.0 secs   av.it.:  11.6
      thresh= 3.984E-08 alpha_mix =  0.500 |ddv_scf|^2 =  2.856E-15

      iter #   7 total cpu time :   473.0 secs   av.it.:  11.4
      thresh= 5.345E-09 alpha_mix =  0.500 |ddv_scf|^2 =  1.532E-17

     End of self-consistent calculation

     Convergence has been achieved 


     Representation #   6 mode #   6

     Self-consistent Calculation

      iter #   1 total cpu time :   475.2 secs   av.it.:   4.7
      thresh= 1.000E-02 alpha_mix =  0.500 |ddv_scf|^2 =  1.668E-08

      iter #   2 total cpu time :   478.2 secs   av.it.:  10.7
      thresh= 1.292E-05 alpha_mix =  0.500 |ddv_scf|^2 =  3.454E-09

      iter #   3 total cpu time :   481.2 secs   av.it.:  11.1
      thresh= 5.877E-06 alpha_mix =  0.500 |ddv_scf|^2 =  9.927E-11

      iter #   4 total cpu time :   484.2 secs   av.it.:  11.3
      thresh= 9.963E-07 alpha_mix =  0.500 |ddv_scf|^2 =  3.712E-12

      iter #   5 total cpu time :   487.3 secs   av.it.:  11.2
      thresh= 1.927E-07 alpha_mix =  0.500 |ddv_scf|^2 =  2.142E-13

      iter #   6 total cpu time :   490.4 secs   av.it.:  11.7
      thresh= 4.628E-08 alpha_mix =  0.500 |ddv_scf|^2 =  6.844E-16

      iter #   7 total cpu time :   493.6 secs   av.it.:  12.0
      thresh= 2.616E-09 alpha_mix =  0.500 |ddv_scf|^2 =  5.963E-18

     End of self-consistent calculation

     Convergence has been achieved 


     Representation #   7 mode #   7

     Self-consistent Calculation

      iter #   1 total cpu time :   496.0 secs   av.it.:   5.8
      thresh= 1.000E-02 alpha_mix =  0.500 |ddv_scf|^2 =  3.397E-07

      iter #   2 total cpu time :   499.1 secs   av.it.:  12.0
      thresh= 5.828E-05 alpha_mix =  0.500 |ddv_scf|^2 =  1.461E-07

      iter #   3 total cpu time :   502.2 secs   av.it.:  11.5
      thresh= 3.822E-05 alpha_mix =  0.500 |ddv_scf|^2 =  2.542E-09

      iter #   4 total cpu time :   505.3 secs   av.it.:  11.1
      thresh= 5.042E-06 alpha_mix =  0.500 |ddv_scf|^2 =  1.168E-10

      iter #   5 total cpu time :   508.4 secs   av.it.:  11.5
      thresh= 1.081E-06 alpha_mix =  0.500 |ddv_scf|^2 =  2.286E-11

      iter #   6 total cpu time :   511.4 secs   av.it.:  11.3
      thresh= 4.781E-07 alpha_mix =  0.500 |ddv_scf|^2 =  4.127E-13

      iter #   7 total cpu time :   514.4 secs   av.it.:  10.8
      thresh= 6.424E-08 alpha_mix =  0.500 |ddv_scf|^2 =  6.283E-14

      iter #   8 total cpu time :   517.4 secs   av.it.:  11.3
      thresh= 2.507E-08 alpha_mix =  0.500 |ddv_scf|^2 =  7.995E-17

     End of self-consistent calculation

     Convergence has been achieved 


     Representation #   8 mode #   8

     Self-consistent Calculation

      iter #   1 total cpu time :   520.0 secs   av.it.:   7.3
      thresh= 1.000E-02 alpha_mix =  0.500 |ddv_scf|^2 =  2.863E-06

      iter #   2 total cpu time :   523.1 secs   av.it.:  11.9
      thresh= 1.692E-04 alpha_mix =  0.500 |ddv_scf|^2 =  1.153E-07

      iter #   3 total cpu time :   526.2 secs   av.it.:  11.8
      thresh= 3.396E-05 alpha_mix =  0.500 |ddv_scf|^2 =  9.899E-09

      iter #   4 total cpu time :   529.4 secs   av.it.:  12.1
      thresh= 9.950E-06 alpha_mix =  0.500 |ddv_scf|^2 =  2.331E-09

      iter #   5 total cpu time :   532.5 secs   av.it.:  11.7
      thresh= 4.828E-06 alpha_mix =  0.500 |ddv_scf|^2 =  3.398E-11

      iter #   6 total cpu time :   536.0 secs   av.it.:  12.0
      thresh= 5.830E-07 alpha_mix =  0.500 |ddv_scf|^2 =  1.317E-12

      iter #   7 total cpu time :   540.3 secs   av.it.:  11.6
      thresh= 1.147E-07 alpha_mix =  0.500 |ddv_scf|^2 =  2.154E-13

      iter #   8 total cpu time :   544.7 secs   av.it.:  12.2
      thresh= 4.641E-08 alpha_mix =  0.500 |ddv_scf|^2 =  9.640E-15

      iter #   9 total cpu time :   548.9 secs   av.it.:  11.8
      thresh= 9.818E-09 alpha_mix =  0.500 |ddv_scf|^2 =  1.765E-16

      iter #  10 total cpu time :   553.2 secs   av.it.:  11.7
      thresh= 1.329E-09 alpha_mix =  0.500 |ddv_scf|^2 =  1.613E-17

     End of self-consistent calculation

     Convergence has been achieved 


     Representation #   9 mode #   9

     Self-consistent Calculation

      iter #   1 total cpu time :   556.3 secs   av.it.:   5.7
      thresh= 1.000E-02 alpha_mix =  0.500 |ddv_scf|^2 =  1.998E-07

      iter #   2 total cpu time :   560.6 secs   av.it.:  11.8
      thresh= 4.470E-05 alpha_mix =  0.500 |ddv_scf|^2 =  5.233E-08

      iter #   3 total cpu time :   564.8 secs   av.it.:  11.6
      thresh= 2.288E-05 alpha_mix =  0.500 |ddv_scf|^2 =  3.477E-09

      iter #   4 total cpu time :   568.9 secs   av.it.:  11.5
      thresh= 5.897E-06 alpha_mix =  0.500 |ddv_scf|^2 =  2.062E-10

      iter #   5 total cpu time :   573.1 secs   av.it.:  11.4
      thresh= 1.436E-06 alpha_mix =  0.500 |ddv_scf|^2 =  8.070E-12

      iter #   6 total cpu time :   577.3 secs   av.it.:  11.6
      thresh= 2.841E-07 alpha_mix =  0.500 |ddv_scf|^2 =  8.997E-13

      iter #   7 total cpu time :   581.4 secs   av.it.:  11.1
      thresh= 9.485E-08 alpha_mix =  0.500 |ddv_scf|^2 =  7.132E-14

      iter #   8 total cpu time :   585.6 secs   av.it.:  11.2
      thresh= 2.671E-08 alpha_mix =  0.500 |ddv_scf|^2 =  2.494E-15

      iter #   9 total cpu time :   589.6 secs   av.it.:  11.1
      thresh= 4.994E-09 alpha_mix =  0.500 |ddv_scf|^2 =  1.153E-16

      iter #  10 total cpu time :   593.8 secs   av.it.:  11.5
      thresh= 1.074E-09 alpha_mix =  0.500 |ddv_scf|^2 =  3.462E-18

     End of self-consistent calculation

     Convergence has been achieved 


     Representation #  10 mode #  10

     Self-consistent Calculation

      iter #   1 total cpu time :   597.3 secs   av.it.:   7.4
      thresh= 1.000E-02 alpha_mix =  0.500 |ddv_scf|^2 =  6.297E-06

      iter #   2 total cpu time :   601.5 secs   av.it.:  11.6
      thresh= 2.509E-04 alpha_mix =  0.500 |ddv_scf|^2 =  3.157E-07

      iter #   3 total cpu time :   605.7 secs   av.it.:  11.5
      thresh= 5.619E-05 alpha_mix =  0.500 |ddv_scf|^2 =  1.749E-08

      iter #   4 total cpu time :   610.0 secs   av.it.:  12.1
      thresh= 1.322E-05 alpha_mix =  0.500 |ddv_scf|^2 =  4.072E-09

      iter #   5 total cpu time :   614.1 secs   av.it.:  11.5
      thresh= 6.381E-06 alpha_mix =  0.500 |ddv_scf|^2 =  2.803E-11

      iter #   6 total cpu time :   618.4 secs   av.it.:  12.0
      thresh= 5.294E-07 alpha_mix =  0.500 |ddv_scf|^2 =  2.006E-12

      iter #   7 total cpu time :   622.5 secs   av.it.:  11.4
      thresh= 1.416E-07 alpha_mix =  0.500 |ddv_scf|^2 =  2.269E-13

      iter #   8 total cpu time :   626.8 secs   av.it.:  12.0
      thresh= 4.763E-08 alpha_mix =  0.500 |ddv_scf|^2 =  7.882E-15

      iter #   9 total cpu time :   631.0 secs   av.it.:  11.8
      thresh= 8.878E-09 alpha_mix =  0.500 |ddv_scf|^2 =  5.247E-16

      iter #  10 total cpu time :   635.2 secs   av.it.:  11.7
      thresh= 2.291E-09 alpha_mix =  0.500 |ddv_scf|^2 =  4.887E-17

     End of self-consistent calculation

     Convergence has been achieved 


     Representation #  11 mode #  11

     Self-consistent Calculation

      iter #   1 total cpu time :   638.2 secs   av.it.:   5.0
      thresh= 1.000E-02 alpha_mix =  0.500 |ddv_scf|^2 =  2.905E-08

      iter #   2 total cpu time :   642.3 secs   av.it.:  10.9
      thresh= 1.704E-05 alpha_mix =  0.500 |ddv_scf|^2 =  3.694E-09

      iter #   3 total cpu time :   646.3 secs   av.it.:  10.8
      thresh= 6.078E-06 alpha_mix =  0.500 |ddv_scf|^2 =  3.596E-10

      iter #   4 total cpu time :   650.3 secs   av.it.:  10.8
      thresh= 1.896E-06 alpha_mix =  0.500 |ddv_scf|^2 =  5.339E-12

      iter #   5 total cpu time :   654.3 secs   av.it.:  10.5
      thresh= 2.311E-07 alpha_mix =  0.500 |ddv_scf|^2 =  1.048E-13

      iter #   6 total cpu time :   658.4 secs   av.it.:  11.4
      thresh= 3.238E-08 alpha_mix =  0.500 |ddv_scf|^2 =  1.081E-15

      iter #   7 total cpu time :   662.6 secs   av.it.:  11.9
      thresh= 3.289E-09 alpha_mix =  0.500 |ddv_scf|^2 =  1.527E-17

     End of self-consistent calculation

     Convergence has been achieved 


     Representation #  12 mode #  12

     Self-consistent Calculation

      iter #   1 total cpu time :   666.0 secs   av.it.:   6.8
      thresh= 1.000E-02 alpha_mix =  0.500 |ddv_scf|^2 =  1.600E-06

      iter #   2 total cpu time :   670.0 secs   av.it.:  11.2
      thresh= 1.265E-04 alpha_mix =  0.500 |ddv_scf|^2 =  3.923E-08

      iter #   3 total cpu time :   674.2 secs   av.it.:  11.5
      thresh= 1.981E-05 alpha_mix =  0.500 |ddv_scf|^2 =  1.392E-10

      iter #   4 total cpu time :   678.6 secs   av.it.:  11.5
      thresh= 1.180E-06 alpha_mix =  0.500 |ddv_scf|^2 =  1.416E-12

      iter #   5 total cpu time :   682.5 secs   av.it.:  10.5
      thresh= 1.190E-07 alpha_mix =  0.500 |ddv_scf|^2 =  2.083E-13

      iter #   6 total cpu time :   686.6 secs   av.it.:  10.7
      thresh= 4.564E-08 alpha_mix =  0.500 |ddv_scf|^2 =  8.095E-16

      iter #   7 total cpu time :   691.0 secs   av.it.:  11.8
      thresh= 2.845E-09 alpha_mix =  0.500 |ddv_scf|^2 =  2.244E-17

     End of self-consistent calculation

     Convergence has been achieved 

     Number of q in the star =    3
     List of q in the star:
          1  -0.288675134  -0.500000003   0.000000000
          2   0.577350268  -0.000000000   0.000000000
          3  -0.288675134   0.500000003   0.000000000

     Diagonalizing the dynamical matrix

     q = (   -0.288675134  -0.500000003   0.000000000 ) 

 **************************************************************************
     freq (    1) =       6.699655 [THz] =     223.476426 [cm-1]
     freq (    2) =       8.985895 [THz] =     299.737187 [cm-1]
     freq (    3) =      10.087728 [THz] =     336.490384 [cm-1]
     freq (    4) =      11.833407 [THz] =     394.719981 [cm-1]
     freq (    5) =      14.776520 [THz] =     492.891668 [cm-1]
     freq (    6) =      15.285174 [THz] =     509.858516 [cm-1]
     freq (    7) =      18.638098 [THz] =     621.700018 [cm-1]
     freq (    8) =      19.218358 [THz] =     641.055418 [cm-1]
     freq (    9) =      19.673804 [THz] =     656.247458 [cm-1]
     freq (   10) =      19.751547 [THz] =     658.840680 [cm-1]
     freq (   11) =      21.374437 [THz] =     712.974473 [cm-1]
     freq (   12) =      21.949301 [THz] =     732.149862 [cm-1]
 **************************************************************************

     Mode symmetry, C_2v (mm2)  point group:

     freq (   1-   1) =        223.5  [cm-1]   --> A_2  D_2  S_2      
     freq (   2-   2) =        299.7  [cm-1]   --> B_1  D_3  S_3      
     freq (   3-   3) =        336.5  [cm-1]   --> B_2  D_4  S_4      
     freq (   4-   4) =        394.7  [cm-1]   --> A_1  D_1  S_1      
     freq (   5-   5) =        492.9  [cm-1]   --> B_1  D_3  S_3      
     freq (   6-   6) =        509.9  [cm-1]   --> A_1  D_1  S_1      
     freq (   7-   7) =        621.7  [cm-1]   --> B_1  D_3  S_3      
     freq (   8-   8) =        641.1  [cm-1]   --> A_2  D_2  S_2      
     freq (   9-   9) =        656.2  [cm-1]   --> B_2  D_4  S_4      
     freq (  10-  10) =        658.8  [cm-1]   --> A_1  D_1  S_1      
     freq (  11-  11) =        713.0  [cm-1]   --> B_1  D_3  S_3      
     freq (  12-  12) =        732.1  [cm-1]   --> A_1  D_1  S_1      

     init_run     :      0.68s CPU      0.69s WALL (       1 calls)
     electrons    :      4.30s CPU      4.38s WALL (       1 calls)

     Called by init_run:
     wfcinit      :      0.00s CPU      0.00s WALL (       1 calls)
     potinit      :      0.14s CPU      0.14s WALL (       1 calls)
     hinit0       :      0.43s CPU      0.43s WALL (       1 calls)

     Called by electrons:
     c_bands      :      4.30s CPU      4.38s WALL (       1 calls)
     v_of_rho     :      0.05s CPU      0.05s WALL (       2 calls)
     newd         :      0.11s CPU      0.14s WALL (       2 calls)
     PAW_pot      :      0.29s CPU      0.29s WALL (       2 calls)

     Called by c_bands:
     init_us_2    :      0.91s CPU      0.96s WALL (    4572 calls)
     cegterg      :      3.71s CPU      3.79s WALL (      52 calls)

     Called by *egterg:
     cdiaghg      :      0.11s CPU      0.11s WALL (     752 calls)
     h_psi        :    253.77s CPU    260.11s WALL (   61869 calls)
     s_psi        :     58.44s CPU     59.58s WALL (  127304 calls)
     g_psi        :      0.01s CPU      0.01s WALL (     700 calls)

     Called by h_psi:
     h_psi:calbec :     30.89s CPU     31.88s WALL (   61869 calls)
     vloc_psi     :    194.41s CPU    198.97s WALL (   61869 calls)
     add_vuspsi   :     27.92s CPU     28.72s WALL (   61869 calls)

     General routines
     calbec       :     73.85s CPU     75.69s WALL (  142642 calls)
     fft          :      9.22s CPU      9.45s WALL (    4416 calls)
     ffts         :      0.39s CPU      0.41s WALL (    1376 calls)
     fftw         :    217.02s CPU    222.59s WALL (  952308 calls)
     interpolate  :      0.60s CPU      0.70s WALL (     464 calls)
     davcio       :      0.98s CPU      1.38s WALL (   25315 calls)

     Parallel routines

     PHONON       :  11m19.06s CPU  11m31.10s WALL

     INITIALIZATION: 
     phq_setup    :      0.14s CPU      0.14s WALL (       2 calls)
     phq_init     :     11.71s CPU     11.76s WALL (       2 calls)

     phq_init     :     11.71s CPU     11.76s WALL (       2 calls)
     set_drhoc    :      1.81s CPU      1.82s WALL (       6 calls)
     init_vloc    :      0.15s CPU      0.15s WALL (       2 calls)
     init_us_1    :      0.41s CPU      0.42s WALL (       2 calls)
     newd         :      0.11s CPU      0.14s WALL (       2 calls)
     dvanqq       :      3.46s CPU      3.46s WALL (       2 calls)
     drho         :      5.02s CPU      5.06s WALL (       2 calls)

     DYNAMICAL MATRIX:
     dynmat0      :      1.82s CPU      1.83s WALL (       2 calls)
     phqscf       :    574.37s CPU    584.43s WALL (       2 calls)
     dynmatrix    :      0.00s CPU      0.00s WALL (       2 calls)

     phqscf       :    574.37s CPU    584.43s WALL (       2 calls)
     solve_linter :    568.30s CPU    578.20s WALL (      20 calls)
     drhodv       :      1.42s CPU      1.45s WALL (      20 calls)

     dynmat0      :      1.82s CPU      1.83s WALL (       2 calls)
     dynmat_us    :      0.29s CPU      0.29s WALL (       2 calls)
     d2ionq       :      0.05s CPU      0.05s WALL (       2 calls)
     dynmatcc     :      1.37s CPU      1.37s WALL (       2 calls)

     dynmat_us    :      0.29s CPU      0.29s WALL (       2 calls)
     addusdynmat  :      0.00s CPU      0.00s WALL (       2 calls)

     phqscf       :    574.37s CPU    584.43s WALL (       2 calls)
     solve_linter :    568.30s CPU    578.20s WALL (      20 calls)

     solve_linter :    568.30s CPU    578.20s WALL (      20 calls)
     dvqpsi_us    :      4.50s CPU      4.64s WALL (     648 calls)
     ortho        :      6.49s CPU      6.64s WALL (    4328 calls)
     cgsolve      :    367.26s CPU    375.66s WALL (    4328 calls)
     incdrhoscf   :     19.89s CPU     20.54s WALL (    4328 calls)
     addusddens   :     22.94s CPU     22.96s WALL (     186 calls)
     vpsifft      :     13.05s CPU     13.63s WALL (    3470 calls)
     dv_of_drho   :      3.96s CPU      4.11s WALL (     220 calls)
     mix_pot      :      0.60s CPU      0.95s WALL (     174 calls)
     psymdvscf    :     11.01s CPU     11.12s WALL (     166 calls)
     newdq        :     20.83s CPU     20.84s WALL (     174 calls)
     adddvscf     :      2.23s CPU      2.30s WALL (    3764 calls)
     drhodvus     :      0.04s CPU      0.06s WALL (      20 calls)

     dvqpsi_us    :      4.50s CPU      4.64s WALL (     648 calls)
     dvqpsi_us_on :      1.66s CPU      1.69s WALL (     648 calls)

     cgsolve      :    367.26s CPU    375.66s WALL (    4328 calls)
     ch_psi       :    357.54s CPU    365.82s WALL (   61065 calls)

     ch_psi       :    357.54s CPU    365.82s WALL (   61065 calls)
     h_psi        :    253.77s CPU    260.11s WALL (   61869 calls)
     last         :     78.07s CPU     79.39s WALL (   61065 calls)

     h_psi        :    253.77s CPU    260.11s WALL (   61869 calls)
     add_vuspsi   :     27.92s CPU     28.72s WALL (   61869 calls)

     incdrhoscf   :     19.89s CPU     20.54s WALL (    4328 calls)
     addusdbec    :      3.13s CPU      3.23s WALL (    4808 calls)

     drhodvus     :      0.04s CPU      0.06s WALL (      20 calls)

      General routines
     calbec       :     73.85s CPU     75.69s WALL (  142642 calls)
     fft          :      9.22s CPU      9.45s WALL (    4416 calls)
     ffts         :      0.39s CPU      0.41s WALL (    1376 calls)
     fftw         :    217.02s CPU    222.59s WALL (  952308 calls)
     davcio       :      0.98s CPU      1.38s WALL (   25315 calls)
     write_rec    :      0.16s CPU      0.52s WALL (     194 calls)


     PHONON       :  11m19.06s CPU  11m31.10s WALL


   This run was terminated on:   0:13:41  13May2023            

=------------------------------------------------------------------------------=
   JOB DONE.
=------------------------------------------------------------------------------=
