
     Program PHONON v.6.8 starts on 13May2023 at 18: 6:11 

     This program is part of the open-source Quantum ESPRESSO suite
     for quantum simulation of materials; please cite
         "P. Giannozzi et al., J. Phys.:Condens. Matter 21 395502 (2009);
         "P. Giannozzi et al., J. Phys.:Condens. Matter 29 465901 (2017);
         "P. Giannozzi et al., J. Chem. Phys. 152 154105 (2020);
          URL http://www.quantum-espresso.org", 
     in publications or presentations arising from this work. More details at
     http://www.quantum-espresso.org/quote

     Parallel version (MPI & OpenMP), running on      48 processor cores
     Number of MPI processes:                48
     Threads/MPI process:                     1

     MPI processes distributed on     1 nodes
     K-points division:     npool     =       4
     R & G space division:  proc/nbgrp/npool/nimage =      12
     365612 MiB available memory on the printing compute node when the environment starts
 
     Reading input from ph.aln.in

     Reading xml data from directory:

     ./aln.save/
     file Al.pbe-n-kjpaw_psl.1.0.0.UPF: wavefunction(s)  3S 3P renormalized

     IMPORTANT: XC functional enforced from input :
     Exchange-correlation= PBE
                           (   1   4   3   4   0   0   0)
     Any further DFT definition will be discarded
     Please, verify this is what you really want

 
     Parallelization info
     --------------------
     sticks:   dense  smooth     PW     G-vecs:    dense   smooth      PW
     Min         119      48     13                 5933     1506     239
     Max         120      49     14                 5941     1511     248
     Sum        1429     583    163                71209    18113    2923
 
     Using Slab Decomposition
 
     Reading collected, re-writing distributed wavefunctions


     Dynamical matrices for ( 4, 4, 2)  uniform grid of q-points
     (   8 q-points):
       N         xq(1)         xq(2)         xq(3) 
       1   0.000000000   0.000000000   0.000000000
       2   0.000000000   0.000000000  -0.311861657
       3   0.144337567   0.250000001   0.000000000
       4   0.144337567   0.250000001  -0.311861657
       5  -0.288675134  -0.500000003   0.000000000
       6  -0.288675134  -0.500000003  -0.311861657
       7   0.433012701   0.250000001   0.000000000
       8   0.433012701   0.250000001  -0.311861657
Eigenvectors exchange needed    1    3
Eigenvectors exchange needed    3    4
Eigenvectors exchange needed    5    9
Eigenvectors exchange needed    5   10
Eigenvectors exchange needed    6    9
Eigenvectors exchange needed    7   10
Eigenvectors exchange needed    9   11
Eigenvectors exchange needed    9   12
Eigenvectors exchange needed   10   11
Eigenvectors exchange needed   11   12
Eigenvectors exchange needed    1    7
Eigenvectors exchange needed    3    9
Eigenvectors exchange needed    5   11
Eigenvectors exchange needed    7    8
Eigenvectors exchange needed    9   10
Eigenvectors exchange needed   11   12

     Calculation of q =    0.0000000   0.0000000   0.0000000

     phonons of Si mesh                                                         

     bravais-lattice index     =            0
     lattice parameter (alat)  =       5.9161  a.u.
     unit-cell volume          =     287.5046 (a.u.)^3
     number of atoms/cell      =            4
     number of atomic types    =            2
     kinetic-energy cut-off    =      60.0000  Ry
     charge density cut-off    =     600.0000  Ry
     convergence threshold     =      1.0E-18
     beta                      =       0.5000
     number of iterations used =            4
     Exchange-correlation= PBE
                           (   1   4   3   4   0   0   0)


     celldm(1)=    5.91610  celldm(2)=    0.00000  celldm(3)=    0.00000
     celldm(4)=    0.00000  celldm(5)=    0.00000  celldm(6)=    0.00000

     crystal axes: (cart. coord. in units of alat)
               a(1) = (  0.8660 -0.5000  0.0000 )  
               a(2) = (  0.0000  1.0000  0.0000 )  
               a(3) = (  0.0000  0.0000  1.6033 )  

     reciprocal axes: (cart. coord. in units 2 pi/alat)
               b(1) = (  1.1547  0.0000  0.0000 )  
               b(2) = (  0.5774  1.0000  0.0000 )  
               b(3) = (  0.0000  0.0000  0.6237 )  


     Atoms inside the unit cell: 

     Cartesian axes

     site n.  atom      mass           positions (alat units)
        1     Al  26.9815   tau(    1) = (    0.28868    0.50000   -0.00120  )
        2     Al  26.9815   tau(    2) = (    0.57735    0.00000    0.80043  )
        3     N   14.0067   tau(    3) = (    0.28868    0.50000    0.61045  )
        4     N   14.0067   tau(    4) = (    0.57735    0.00000    1.41208  )

     Computing dynamical matrix for 
                    q = (   0.0000000   0.0000000   0.0000000 )
 
     13 Sym.Ops. (with q -> -q+G )


     G cutoff =  531.9396  (   5941 G-vectors)     FFT grid: ( 48, 48, 80)
     G cutoff =  212.7758  (   1508 G-vectors)  smooth grid: ( 30, 30, 48)
     number of k points=    30

     PseudoPot. # 1 for Al read from file:
     ./pseudo/Al.pbe-n-kjpaw_psl.1.0.0.UPF
     MD5 check sum: cfc449ca30b5f3223ec38ddd88ac046d
     Pseudo is Projector augmented-wave + core cor, Zval =  3.0
     Generated using "atomic" code by A. Dal Corso  v.5.1
     Shape of augmentation charge: PSQ
     Using radial grid of 1135 points,  6 beta functions with: 
                l(1) =   0
                l(2) =   0
                l(3) =   1
                l(4) =   1
                l(5) =   2
                l(6) =   2
     Q(r) pseudized with 0 coefficients 


     PseudoPot. # 2 for N  read from file:
     ./pseudo/N.pbe-n-radius_5.UPF
     MD5 check sum: 16739722b17309cd8fe442a2ace49922
     Pseudo is Ultrasoft + core correction, Zval =  5.0
     Generated using "atomic" code by A. Dal Corso  v.5.1
     Using radial grid of 1085 points,  4 beta functions with: 
                l(1) =   0
                l(2) =   0
                l(3) =   1
                l(4) =   1
     Q(r) pseudized with 0 coefficients 


     Mode symmetry, C_6v (6mm)  point group:


     Electric field:
     Dielectric constant
     Born effective charges in two ways 


     Atomic displacements:
     There are    8 irreducible representations

     Representation     1      1 modes -  To be done

     Representation     2      1 modes -  To be done

     Representation     3      1 modes -  To be done

     Representation     4      1 modes -  To be done

     Representation     5      2 modes -  To be done

     Representation     6      2 modes -  To be done

     Representation     7      2 modes -  To be done

     Representation     8      2 modes -  To be done



     Alpha used in Ewald sum =   2.8000
     PHONON       :      1.50s CPU      1.80s WALL


     Electric Fields Calculation

      iter #   1 total cpu time :     3.1 secs   av.it.:   7.2
      thresh= 1.000E-02 alpha_mix =  0.500 |ddv_scf|^2 =  1.529E-08

      iter #   2 total cpu time :     4.1 secs   av.it.:  12.4
      thresh= 1.237E-05 alpha_mix =  0.500 |ddv_scf|^2 =  1.833E-09

      iter #   3 total cpu time :     5.0 secs   av.it.:  12.7
      thresh= 4.282E-06 alpha_mix =  0.500 |ddv_scf|^2 =  1.356E-10

      iter #   4 total cpu time :     5.8 secs   av.it.:  12.5
      thresh= 1.164E-06 alpha_mix =  0.500 |ddv_scf|^2 =  1.604E-11

      iter #   5 total cpu time :     6.7 secs   av.it.:  12.5
      thresh= 4.005E-07 alpha_mix =  0.500 |ddv_scf|^2 =  4.009E-13

      iter #   6 total cpu time :     7.6 secs   av.it.:  13.2
      thresh= 6.331E-08 alpha_mix =  0.500 |ddv_scf|^2 =  1.585E-15

      iter #   7 total cpu time :     8.5 secs   av.it.:  12.5
      thresh= 3.982E-09 alpha_mix =  0.500 |ddv_scf|^2 =  3.038E-16

      iter #   8 total cpu time :     9.5 secs   av.it.:  12.6
      thresh= 1.743E-09 alpha_mix =  0.500 |ddv_scf|^2 =  8.351E-18

      iter #   9 total cpu time :    10.4 secs   av.it.:  12.5
      thresh= 2.890E-10 alpha_mix =  0.500 |ddv_scf|^2 =  8.609E-19

     End of electric fields calculation

          Dielectric constant in cartesian axis 

          (       4.477564613       0.000000000       0.000000000 )
          (       0.000000000       4.477564659       0.000000000 )
          (       0.000000000       0.000000000       4.693871766 )

          Effective charges (d Force / dE) in cartesian axis

           atom      1   Al 
      Ex  (        2.52698        0.00000        0.00000 )
      Ey  (        0.00000        2.52698        0.00000 )
      Ez  (        0.00000       -0.00000        2.68559 )
           atom      2   Al 
      Ex  (        2.52698        0.00000        0.00000 )
      Ey  (        0.00000        2.52698        0.00000 )
      Ez  (        0.00000        0.00000        2.68559 )
           atom      3   N  
      Ex  (       -2.51065        0.00000       -0.00000 )
      Ey  (       -0.00000       -2.51065       -0.00000 )
      Ez  (       -0.00000       -0.00000       -2.66725 )
           atom      4   N  
      Ex  (       -2.51065       -0.00000        0.00000 )
      Ey  (        0.00000       -2.51065        0.00000 )
      Ez  (       -0.00000        0.00000       -2.66725 )


     Representation #   1 mode #   1

     Self-consistent Calculation

      iter #   1 total cpu time :    11.5 secs   av.it.:   7.0
      thresh= 1.000E-02 alpha_mix =  0.500 |ddv_scf|^2 =  5.538E-07

      iter #   2 total cpu time :    11.9 secs   av.it.:  11.4
      thresh= 7.442E-05 alpha_mix =  0.500 |ddv_scf|^2 =  2.842E-08

      iter #   3 total cpu time :    12.3 secs   av.it.:  11.7
      thresh= 1.686E-05 alpha_mix =  0.500 |ddv_scf|^2 =  7.109E-11

      iter #   4 total cpu time :    12.7 secs   av.it.:  12.3
      thresh= 8.432E-07 alpha_mix =  0.500 |ddv_scf|^2 =  5.851E-12

      iter #   5 total cpu time :    13.0 secs   av.it.:  12.5
      thresh= 2.419E-07 alpha_mix =  0.500 |ddv_scf|^2 =  1.718E-13

      iter #   6 total cpu time :    13.4 secs   av.it.:  11.5
      thresh= 4.145E-08 alpha_mix =  0.500 |ddv_scf|^2 =  1.663E-14

      iter #   7 total cpu time :    13.8 secs   av.it.:  11.8
      thresh= 1.290E-08 alpha_mix =  0.500 |ddv_scf|^2 =  4.725E-16

      iter #   8 total cpu time :    14.3 secs   av.it.:  11.6
      thresh= 2.174E-09 alpha_mix =  0.500 |ddv_scf|^2 =  8.833E-18

      iter #   9 total cpu time :    14.6 secs   av.it.:  11.4
      thresh= 2.972E-10 alpha_mix =  0.500 |ddv_scf|^2 =  9.539E-19

     End of self-consistent calculation

     Convergence has been achieved 


     Representation #   2 mode #   2

     Self-consistent Calculation

      iter #   1 total cpu time :    15.0 secs   av.it.:   4.6
      thresh= 1.000E-02 alpha_mix =  0.500 |ddv_scf|^2 =  1.030E-08

      iter #   2 total cpu time :    15.4 secs   av.it.:  10.5
      thresh= 1.015E-05 alpha_mix =  0.500 |ddv_scf|^2 =  2.345E-09

      iter #   3 total cpu time :    15.8 secs   av.it.:  11.4
      thresh= 4.843E-06 alpha_mix =  0.500 |ddv_scf|^2 =  4.323E-11

      iter #   4 total cpu time :    16.1 secs   av.it.:  11.9
      thresh= 6.575E-07 alpha_mix =  0.500 |ddv_scf|^2 =  7.415E-12

      iter #   5 total cpu time :    16.5 secs   av.it.:  11.7
      thresh= 2.723E-07 alpha_mix =  0.500 |ddv_scf|^2 =  5.311E-13

      iter #   6 total cpu time :    16.9 secs   av.it.:  12.2
      thresh= 7.288E-08 alpha_mix =  0.500 |ddv_scf|^2 =  7.741E-14

      iter #   7 total cpu time :    17.2 secs   av.it.:  12.0
      thresh= 2.782E-08 alpha_mix =  0.500 |ddv_scf|^2 =  1.191E-16

      iter #   8 total cpu time :    17.6 secs   av.it.:  10.9
      thresh= 1.091E-09 alpha_mix =  0.500 |ddv_scf|^2 =  2.793E-17

      iter #   9 total cpu time :    18.0 secs   av.it.:  11.6
      thresh= 5.285E-10 alpha_mix =  0.500 |ddv_scf|^2 =  6.745E-19

     End of self-consistent calculation

     Convergence has been achieved 


     Representation #   3 mode #   3

     Self-consistent Calculation

      iter #   1 total cpu time :    18.4 secs   av.it.:   6.0
      thresh= 1.000E-02 alpha_mix =  0.500 |ddv_scf|^2 =  8.713E-07

      iter #   2 total cpu time :    18.8 secs   av.it.:  11.6
      thresh= 9.334E-05 alpha_mix =  0.500 |ddv_scf|^2 =  1.834E-07

      iter #   3 total cpu time :    19.1 secs   av.it.:  11.6
      thresh= 4.282E-05 alpha_mix =  0.500 |ddv_scf|^2 =  8.570E-09

      iter #   4 total cpu time :    19.5 secs   av.it.:  11.1
      thresh= 9.258E-06 alpha_mix =  0.500 |ddv_scf|^2 =  7.173E-10

      iter #   5 total cpu time :    19.9 secs   av.it.:  11.2
      thresh= 2.678E-06 alpha_mix =  0.500 |ddv_scf|^2 =  5.299E-11

      iter #   6 total cpu time :    20.2 secs   av.it.:  11.2
      thresh= 7.279E-07 alpha_mix =  0.500 |ddv_scf|^2 =  3.888E-13

      iter #   7 total cpu time :    20.6 secs   av.it.:  10.0
      thresh= 6.235E-08 alpha_mix =  0.500 |ddv_scf|^2 =  9.286E-14

      iter #   8 total cpu time :    20.9 secs   av.it.:  10.7
      thresh= 3.047E-08 alpha_mix =  0.500 |ddv_scf|^2 =  1.336E-15

      iter #   9 total cpu time :    21.3 secs   av.it.:  11.2
      thresh= 3.656E-09 alpha_mix =  0.500 |ddv_scf|^2 =  2.545E-17

      iter #  10 total cpu time :    21.7 secs   av.it.:  11.3
      thresh= 5.045E-10 alpha_mix =  0.500 |ddv_scf|^2 =  8.445E-18

      iter #  11 total cpu time :    22.1 secs   av.it.:  11.1
      thresh= 2.906E-10 alpha_mix =  0.500 |ddv_scf|^2 =  2.861E-19

     End of self-consistent calculation

     Convergence has been achieved 


     Representation #   4 mode #   4

     Self-consistent Calculation

      iter #   1 total cpu time :    22.5 secs   av.it.:   7.3
      thresh= 1.000E-02 alpha_mix =  0.500 |ddv_scf|^2 =  1.213E-05

      iter #   2 total cpu time :    22.9 secs   av.it.:  10.9
      thresh= 3.483E-04 alpha_mix =  0.500 |ddv_scf|^2 =  1.347E-06

      iter #   3 total cpu time :    23.2 secs   av.it.:  10.8
      thresh= 1.161E-04 alpha_mix =  0.500 |ddv_scf|^2 =  4.221E-09

      iter #   4 total cpu time :    23.6 secs   av.it.:  11.8
      thresh= 6.497E-06 alpha_mix =  0.500 |ddv_scf|^2 =  1.083E-09

      iter #   5 total cpu time :    24.0 secs   av.it.:  11.7
      thresh= 3.290E-06 alpha_mix =  0.500 |ddv_scf|^2 =  2.099E-11

      iter #   6 total cpu time :    24.4 secs   av.it.:  11.5
      thresh= 4.581E-07 alpha_mix =  0.500 |ddv_scf|^2 =  6.756E-13

      iter #   7 total cpu time :    24.8 secs   av.it.:  11.7
      thresh= 8.219E-08 alpha_mix =  0.500 |ddv_scf|^2 =  1.403E-13

      iter #   8 total cpu time :    25.2 secs   av.it.:  11.5
      thresh= 3.745E-08 alpha_mix =  0.500 |ddv_scf|^2 =  1.115E-15

      iter #   9 total cpu time :    25.6 secs   av.it.:  10.9
      thresh= 3.339E-09 alpha_mix =  0.500 |ddv_scf|^2 =  1.887E-16

      iter #  10 total cpu time :    26.0 secs   av.it.:  11.7
      thresh= 1.374E-09 alpha_mix =  0.500 |ddv_scf|^2 =  1.237E-17

      iter #  11 total cpu time :    26.4 secs   av.it.:  11.2
      thresh= 3.517E-10 alpha_mix =  0.500 |ddv_scf|^2 =  1.076E-18

      iter #  12 total cpu time :    26.7 secs   av.it.:  11.3
      thresh= 1.037E-10 alpha_mix =  0.500 |ddv_scf|^2 =  1.643E-19

     End of self-consistent calculation

     Convergence has been achieved 


     Representation #   5 modes #   5   6

     Self-consistent Calculation

      iter #   1 total cpu time :    27.4 secs   av.it.:   7.3
      thresh= 1.000E-02 alpha_mix =  0.500 |ddv_scf|^2 =  1.461E-07

      iter #   2 total cpu time :    28.1 secs   av.it.:  13.1
      thresh= 3.822E-05 alpha_mix =  0.500 |ddv_scf|^2 =  7.274E-09

      iter #   3 total cpu time :    28.7 secs   av.it.:  13.3
      thresh= 8.529E-06 alpha_mix =  0.500 |ddv_scf|^2 =  1.705E-11

      iter #   4 total cpu time :    29.4 secs   av.it.:  13.9
      thresh= 4.129E-07 alpha_mix =  0.500 |ddv_scf|^2 =  1.330E-13

      iter #   5 total cpu time :    30.1 secs   av.it.:  12.4
      thresh= 3.647E-08 alpha_mix =  0.500 |ddv_scf|^2 =  2.392E-14

      iter #   6 total cpu time :    30.8 secs   av.it.:  13.2
      thresh= 1.547E-08 alpha_mix =  0.500 |ddv_scf|^2 =  2.612E-16

      iter #   7 total cpu time :    31.4 secs   av.it.:  13.0
      thresh= 1.616E-09 alpha_mix =  0.500 |ddv_scf|^2 =  1.742E-18

      iter #   8 total cpu time :    32.1 secs   av.it.:  12.3
      thresh= 1.320E-10 alpha_mix =  0.500 |ddv_scf|^2 =  3.843E-19

     End of self-consistent calculation

     Convergence has been achieved 


     Representation #   6 modes #   7   8

     Self-consistent Calculation

      iter #   1 total cpu time :    32.8 secs   av.it.:   5.0
      thresh= 1.000E-02 alpha_mix =  0.500 |ddv_scf|^2 =  2.582E-09

      iter #   2 total cpu time :    33.5 secs   av.it.:  12.2
      thresh= 5.081E-06 alpha_mix =  0.500 |ddv_scf|^2 =  5.895E-10

      iter #   3 total cpu time :    34.1 secs   av.it.:  12.7
      thresh= 2.428E-06 alpha_mix =  0.500 |ddv_scf|^2 =  8.005E-12

      iter #   4 total cpu time :    34.8 secs   av.it.:  13.2
      thresh= 2.829E-07 alpha_mix =  0.500 |ddv_scf|^2 =  4.040E-13

      iter #   5 total cpu time :    35.5 secs   av.it.:  13.8
      thresh= 6.356E-08 alpha_mix =  0.500 |ddv_scf|^2 =  1.207E-13

      iter #   6 total cpu time :    36.2 secs   av.it.:  13.4
      thresh= 3.474E-08 alpha_mix =  0.500 |ddv_scf|^2 =  5.640E-17

      iter #   7 total cpu time :    36.8 secs   av.it.:  13.3
      thresh= 7.510E-10 alpha_mix =  0.500 |ddv_scf|^2 =  1.847E-18

      iter #   8 total cpu time :    37.5 secs   av.it.:  12.9
      thresh= 1.359E-10 alpha_mix =  0.500 |ddv_scf|^2 =  7.919E-20

     End of self-consistent calculation

     Convergence has been achieved 


     Representation #   7 modes #   9  10

     Self-consistent Calculation

      iter #   1 total cpu time :    38.2 secs   av.it.:   5.1
      thresh= 1.000E-02 alpha_mix =  0.500 |ddv_scf|^2 =  2.983E-09

      iter #   2 total cpu time :    38.9 secs   av.it.:  12.5
      thresh= 5.462E-06 alpha_mix =  0.500 |ddv_scf|^2 =  6.043E-10

      iter #   3 total cpu time :    39.5 secs   av.it.:  12.8
      thresh= 2.458E-06 alpha_mix =  0.500 |ddv_scf|^2 =  1.913E-11

      iter #   4 total cpu time :    40.2 secs   av.it.:  13.0
      thresh= 4.374E-07 alpha_mix =  0.500 |ddv_scf|^2 =  5.807E-13

      iter #   5 total cpu time :    40.9 secs   av.it.:  12.9
      thresh= 7.621E-08 alpha_mix =  0.500 |ddv_scf|^2 =  3.546E-14

      iter #   6 total cpu time :    41.6 secs   av.it.:  13.4
      thresh= 1.883E-08 alpha_mix =  0.500 |ddv_scf|^2 =  9.801E-17

      iter #   7 total cpu time :    42.2 secs   av.it.:  13.8
      thresh= 9.900E-10 alpha_mix =  0.500 |ddv_scf|^2 =  1.350E-18

      iter #   8 total cpu time :    42.9 secs   av.it.:  12.7
      thresh= 1.162E-10 alpha_mix =  0.500 |ddv_scf|^2 =  2.325E-19

     End of self-consistent calculation

     Convergence has been achieved 


     Representation #   8 modes #  11  12

     Self-consistent Calculation

      iter #   1 total cpu time :    43.6 secs   av.it.:   7.4
      thresh= 1.000E-02 alpha_mix =  0.500 |ddv_scf|^2 =  1.769E-07

      iter #   2 total cpu time :    44.3 secs   av.it.:  13.1
      thresh= 4.206E-05 alpha_mix =  0.500 |ddv_scf|^2 =  7.659E-09

      iter #   3 total cpu time :    45.0 secs   av.it.:  13.4
      thresh= 8.752E-06 alpha_mix =  0.500 |ddv_scf|^2 =  1.593E-11

      iter #   4 total cpu time :    45.7 secs   av.it.:  13.8
      thresh= 3.992E-07 alpha_mix =  0.500 |ddv_scf|^2 =  1.692E-13

      iter #   5 total cpu time :    46.4 secs   av.it.:  12.8
      thresh= 4.114E-08 alpha_mix =  0.500 |ddv_scf|^2 =  2.605E-14

      iter #   6 total cpu time :    47.0 secs   av.it.:  13.6
      thresh= 1.614E-08 alpha_mix =  0.500 |ddv_scf|^2 =  4.288E-16

      iter #   7 total cpu time :    47.7 secs   av.it.:  13.2
      thresh= 2.071E-09 alpha_mix =  0.500 |ddv_scf|^2 =  2.642E-18

      iter #   8 total cpu time :    48.4 secs   av.it.:  12.8
      thresh= 1.625E-10 alpha_mix =  0.500 |ddv_scf|^2 =  4.894E-19

     End of self-consistent calculation

     Convergence has been achieved 
 
     Number of q in the star =    1
     List of q in the star:
          1   0.000000000   0.000000000   0.000000000

          Dielectric constant in cartesian axis 

          (       4.477564613       0.000000000       0.000000000 )
          (       0.000000000       4.477564659       0.000000000 )
          (       0.000000000       0.000000000       4.693871766 )

          Effective charges (d Force / dE) in cartesian axis

           atom      1   Al 
      Ex  (        2.52698        0.00000        0.00000 )
      Ey  (        0.00000        2.52698        0.00000 )
      Ez  (        0.00000       -0.00000        2.68559 )
           atom      2   Al 
      Ex  (        2.52698        0.00000        0.00000 )
      Ey  (        0.00000        2.52698        0.00000 )
      Ez  (        0.00000        0.00000        2.68559 )
           atom      3   N  
      Ex  (       -2.51065        0.00000       -0.00000 )
      Ey  (       -0.00000       -2.51065       -0.00000 )
      Ez  (       -0.00000       -0.00000       -2.66725 )
           atom      4   N  
      Ex  (       -2.51065       -0.00000        0.00000 )
      Ey  (        0.00000       -2.51065        0.00000 )
      Ez  (       -0.00000        0.00000       -2.66725 )

          Effective charges (d P / du) in cartesian axis 

           atom      1   Al 
      Px  (        2.52698       -0.00000        0.00000 )
      Py  (       -0.00000        2.52698        0.00000 )
      Pz  (        0.00000        0.00000        2.68558 )
           atom      2   Al 
      Px  (        2.52698       -0.00000        0.00000 )
      Py  (        0.00000        2.52698        0.00000 )
      Pz  (        0.00000        0.00000        2.68558 )
           atom      3   N  
      Px  (       -2.51066        0.00000        0.00000 )
      Py  (        0.00000       -2.51066       -0.00000 )
      Pz  (       -0.00000       -0.00000       -2.66731 )
           atom      4   N  
      Px  (       -2.51066        0.00000        0.00000 )
      Py  (        0.00000       -2.51066        0.00000 )
      Pz  (       -0.00000        0.00000       -2.66731 )

     Diagonalizing the dynamical matrix

     q = (    0.000000000   0.000000000   0.000000000 ) 

 **************************************************************************
     freq (    1) =      -0.193388 [THz] =      -6.450724 [cm-1]
     freq (    2) =      -0.191004 [THz] =      -6.371221 [cm-1]
     freq (    3) =      -0.191004 [THz] =      -6.371221 [cm-1]
     freq (    4) =       7.087335 [THz] =     236.408043 [cm-1]
     freq (    5) =       7.087335 [THz] =     236.408045 [cm-1]
     freq (    6) =      16.116173 [THz] =     537.577656 [cm-1]
     freq (    7) =      17.962002 [THz] =     599.147889 [cm-1]
     freq (    8) =      19.217226 [THz] =     641.017655 [cm-1]
     freq (    9) =      19.217226 [THz] =     641.017659 [cm-1]
     freq (   10) =      19.590390 [THz] =     653.465067 [cm-1]
     freq (   11) =      19.590390 [THz] =     653.465072 [cm-1]
     freq (   12) =      21.228133 [THz] =     708.094291 [cm-1]
 **************************************************************************

     Mode symmetry, C_6v (6mm)  point group:

     freq (   1-   1) =         -6.5  [cm-1]   --> A_1             I+R
     freq (   2-   3) =         -6.4  [cm-1]   --> E_1             I+R
     freq (   4-   5) =        236.4  [cm-1]   --> E_2             R  
     freq (   6-   6) =        537.6  [cm-1]   --> B_2                
     freq (   7-   7) =        599.1  [cm-1]   --> A_1             I+R
     freq (   8-   9) =        641.0  [cm-1]   --> E_2             R  
     freq (  10-  11) =        653.5  [cm-1]   --> E_1             I+R
     freq (  12-  12) =        708.1  [cm-1]   --> B_2                

     Calculation of q =    0.0000000   0.0000000  -0.3118617

     Subspace diagonalization in iterative solution of the eigenvalue problem:
     one sub-group per band group will be used
     scalapack distributed-memory algorithm (size of sub-group:  3*  3 procs)

 
     Parallelization info
     --------------------
     sticks:   dense  smooth     PW     G-vecs:    dense   smooth      PW
     Min         119      48     15                 5933     1506     261
     Max         120      49     16                 5941     1511     266
     Sum        1429     583    187                71209    18113    3177
 
     Using Slab Decomposition
 

     Title: 
     phonons of Si mesh                                                         


     bravais-lattice index     =            0
     lattice parameter (alat)  =       5.9161  a.u.
     unit-cell volume          =     287.5046 (a.u.)^3
     number of atoms/cell      =            4
     number of atomic types    =            2
     number of electrons       =        16.00
     number of Kohn-Sham states=            8
     kinetic-energy cutoff     =      60.0000  Ry
     charge density cutoff     =     600.0000  Ry
     Exchange-correlation= PBE
                           (   1   4   3   4   0   0   0)

     celldm(1)=   5.916099  celldm(2)=   0.000000  celldm(3)=   0.000000
     celldm(4)=   0.000000  celldm(5)=   0.000000  celldm(6)=   0.000000

     crystal axes: (cart. coord. in units of alat)
               a(1) = (   0.866025  -0.500000   0.000000 )  
               a(2) = (   0.000000   1.000000   0.000000 )  
               a(3) = (   0.000000   0.000000   1.603275 )  

     reciprocal axes: (cart. coord. in units 2 pi/alat)
               b(1) = (  1.154701  0.000000  0.000000 )  
               b(2) = (  0.577350  1.000000  0.000000 )  
               b(3) = (  0.000000  0.000000  0.623723 )  


     PseudoPot. # 1 for Al read from file:
     ./pseudo/Al.pbe-n-kjpaw_psl.1.0.0.UPF
     MD5 check sum: cfc449ca30b5f3223ec38ddd88ac046d
     Pseudo is Projector augmented-wave + core cor, Zval =  3.0
     Generated using "atomic" code by A. Dal Corso  v.5.1
     Shape of augmentation charge: PSQ
     Using radial grid of 1135 points,  6 beta functions with: 
                l(1) =   0
                l(2) =   0
                l(3) =   1
                l(4) =   1
                l(5) =   2
                l(6) =   2
     Q(r) pseudized with 0 coefficients 


     PseudoPot. # 2 for N  read from file:
     ./pseudo/N.pbe-n-radius_5.UPF
     MD5 check sum: 16739722b17309cd8fe442a2ace49922
     Pseudo is Ultrasoft + core correction, Zval =  5.0
     Generated using "atomic" code by A. Dal Corso  v.5.1
     Using radial grid of 1085 points,  4 beta functions with: 
                l(1) =   0
                l(2) =   0
                l(3) =   1
                l(4) =   1
     Q(r) pseudized with 0 coefficients 


     atomic species   valence    mass     pseudopotential
        Al             3.00    26.98154     Al( 1.00)
        N              5.00    14.00670     N ( 1.00)

     12 Sym. Ops. (no inversion) found



   Cartesian axes

     site n.     atom                  positions (alat units)
         1           Al  tau(   1) = (   0.2886751   0.5000000  -0.0012027  )
         2           Al  tau(   2) = (   0.5773503   0.0000000   0.8004348  )
         3           N   tau(   3) = (   0.2886751   0.5000000   0.6104472  )
         4           N   tau(   4) = (   0.5773503   0.0000000   1.4120847  )

     number of k points=    60
                       cart. coord. in units 2pi/alat
        k(    1) = (   0.0000000   0.0000000   0.0000000), wk =   0.0078125
        k(    2) = (   0.0000000   0.0000000  -0.3118617), wk =   0.0000000
        k(    3) = (   0.0000000   0.0000000   0.1559308), wk =   0.0156250
        k(    4) = (   0.0000000   0.0000000  -0.1559308), wk =   0.0000000
        k(    5) = (   0.0000000   0.0000000  -0.3118617), wk =   0.0078125
        k(    6) = (   0.0000000   0.0000000  -0.6237233), wk =   0.0000000
        k(    7) = (   0.0721688   0.1250000   0.0000000), wk =   0.0468750
        k(    8) = (   0.0721688   0.1250000  -0.3118617), wk =   0.0000000
        k(    9) = (   0.0721688   0.1250000   0.1559308), wk =   0.0937500
        k(   10) = (   0.0721688   0.1250000  -0.1559308), wk =   0.0000000
        k(   11) = (   0.0721688   0.1250000  -0.3118617), wk =   0.0468750
        k(   12) = (   0.0721688   0.1250000  -0.6237233), wk =   0.0000000
        k(   13) = (   0.1443376   0.2500000   0.0000000), wk =   0.0468750
        k(   14) = (   0.1443376   0.2500000  -0.3118617), wk =   0.0000000
        k(   15) = (   0.1443376   0.2500000   0.1559308), wk =   0.0937500
        k(   16) = (   0.1443376   0.2500000  -0.1559308), wk =   0.0000000
        k(   17) = (   0.1443376   0.2500000  -0.3118617), wk =   0.0468750
        k(   18) = (   0.1443376   0.2500000  -0.6237233), wk =   0.0000000
        k(   19) = (   0.2165064   0.3750000   0.0000000), wk =   0.0468750
        k(   20) = (   0.2165064   0.3750000  -0.3118617), wk =   0.0000000
        k(   21) = (   0.2165064   0.3750000   0.1559308), wk =   0.0937500
        k(   22) = (   0.2165064   0.3750000  -0.1559308), wk =   0.0000000
        k(   23) = (   0.2165064   0.3750000  -0.3118617), wk =   0.0468750
        k(   24) = (   0.2165064   0.3750000  -0.6237233), wk =   0.0000000
        k(   25) = (  -0.2886751  -0.5000000   0.0000000), wk =   0.0234375
        k(   26) = (  -0.2886751  -0.5000000  -0.3118617), wk =   0.0000000
        k(   27) = (  -0.2886751  -0.5000000   0.1559308), wk =   0.0468750
        k(   28) = (  -0.2886751  -0.5000000  -0.1559308), wk =   0.0000000
        k(   29) = (  -0.2886751  -0.5000000  -0.3118617), wk =   0.0234375
        k(   30) = (  -0.2886751  -0.5000000  -0.6237233), wk =   0.0000000
        k(   31) = (   0.2165064   0.1250000   0.0000000), wk =   0.0468750
        k(   32) = (   0.2165064   0.1250000  -0.3118617), wk =   0.0000000
        k(   33) = (   0.2165064   0.1250000   0.1559308), wk =   0.0937500
        k(   34) = (   0.2165064   0.1250000  -0.1559308), wk =   0.0000000
        k(   35) = (   0.2165064   0.1250000  -0.3118617), wk =   0.0468750
        k(   36) = (   0.2165064   0.1250000  -0.6237233), wk =   0.0000000
        k(   37) = (   0.2886751   0.2500000   0.0000000), wk =   0.0937500
        k(   38) = (   0.2886751   0.2500000  -0.3118617), wk =   0.0000000
        k(   39) = (   0.2886751   0.2500000   0.1559308), wk =   0.1875000
        k(   40) = (   0.2886751   0.2500000  -0.1559308), wk =   0.0000000
        k(   41) = (   0.2886751   0.2500000  -0.3118617), wk =   0.0937500
        k(   42) = (   0.2886751   0.2500000  -0.6237233), wk =   0.0000000
        k(   43) = (   0.3608439   0.3750000   0.0000000), wk =   0.0937500
        k(   44) = (   0.3608439   0.3750000  -0.3118617), wk =   0.0000000
        k(   45) = (   0.3608439   0.3750000   0.1559308), wk =   0.1875000
        k(   46) = (   0.3608439   0.3750000  -0.1559308), wk =   0.0000000
        k(   47) = (   0.3608439   0.3750000  -0.3118617), wk =   0.0937500
        k(   48) = (   0.3608439   0.3750000  -0.6237233), wk =   0.0000000
        k(   49) = (   0.4330127   0.2500000   0.0000000), wk =   0.0468750
        k(   50) = (   0.4330127   0.2500000  -0.3118617), wk =   0.0000000
        k(   51) = (   0.4330127   0.2500000   0.1559308), wk =   0.0937500
        k(   52) = (   0.4330127   0.2500000  -0.1559308), wk =   0.0000000
        k(   53) = (   0.4330127   0.2500000  -0.3118617), wk =   0.0468750
        k(   54) = (   0.4330127   0.2500000  -0.6237233), wk =   0.0000000
        k(   55) = (   0.5051815   0.3750000   0.0000000), wk =   0.0468750
        k(   56) = (   0.5051815   0.3750000  -0.3118617), wk =   0.0000000
        k(   57) = (   0.5051815   0.3750000   0.1559308), wk =   0.0937500
        k(   58) = (   0.5051815   0.3750000  -0.1559308), wk =   0.0000000
        k(   59) = (   0.5051815   0.3750000  -0.3118617), wk =   0.0468750
        k(   60) = (   0.5051815   0.3750000  -0.6237233), wk =   0.0000000

     Dense  grid:    71209 G-vectors     FFT dimensions: (  48,  48,  80)

     Smooth grid:    18113 G-vectors     FFT dimensions: (  30,  30,  48)

     Estimated max dynamical RAM per process >      10.59 MB

     Estimated total dynamical RAM >     508.27 MB

     The potential is recalculated from file :
     ./_ph0/aln.save/charge-density

     Starting wfcs are   16 atomic wfcs
     Checking if some PAW data can be deallocated... 

     Band Structure Calculation
     Davidson diagonalization with overlap

     ethr =  6.25E-11,  avg # of iterations = 13.8

     total cpu time spent up to now is        1.5 secs

     End of band structure calculation

          k = 0.0000 0.0000 0.0000 (  2297 PWs)   bands (ev):

    -8.1616  -6.0802   0.9957   6.0576   6.0576   6.7000   6.7000   6.9011

          k = 0.0000 0.0000-0.3119 (  2292 PWs)   bands (ev):

    -7.2974  -7.2974   3.6011   3.6011   6.3693   6.3693   6.3693   6.3693

          k = 0.0000 0.0000 0.1559 (  2267 PWs)   bands (ev):

    -7.9307  -6.4969   1.7735   5.6983   6.1470   6.1470   6.6012   6.6012

          k = 0.0000 0.0000-0.1559 (  2267 PWs)   bands (ev):

    -7.9307  -6.4969   1.7735   5.6983   6.1470   6.1470   6.6012   6.6012

          k = 0.0000 0.0000-0.3119 (  2292 PWs)   bands (ev):

    -7.2974  -7.2974   3.6011   3.6011   6.3693   6.3693   6.3693   6.3693

          k = 0.0000 0.0000-0.6237 (  2297 PWs)   bands (ev):

    -8.1616  -6.0802   0.9957   6.0576   6.0576   6.7000   6.7000   6.9011

          k = 0.0722 0.1250 0.0000 (  2265 PWs)   bands (ev):

    -7.9684  -5.9729   1.2283   5.1974   5.8194   5.8752   6.6606   6.8113

          k = 0.0722 0.1250-0.3119 (  2266 PWs)   bands (ev):

    -7.1306  -7.1306   3.5292   3.5292   5.8525   5.8525   6.2174   6.2174

          k = 0.0722 0.1250 0.1559 (  2264 PWs)   bands (ev):

    -7.7437  -6.3651   1.9284   5.1140   5.4551   5.9318   6.4196   6.5255

          k = 0.0722 0.1250-0.1559 (  2264 PWs)   bands (ev):

    -7.7437  -6.3651   1.9284   5.1140   5.4551   5.9318   6.4196   6.5255

          k = 0.0722 0.1250-0.3119 (  2266 PWs)   bands (ev):

    -7.1306  -7.1306   3.5292   3.5292   5.8525   5.8525   6.2174   6.2174

          k = 0.0722 0.1250-0.6237 (  2265 PWs)   bands (ev):

    -7.9684  -5.9729   1.2283   5.1974   5.8194   5.8752   6.6606   6.8113

          k = 0.1443 0.2500 0.0000 (  2263 PWs)   bands (ev):

    -7.4304  -5.7200   1.8960   3.4966   4.4603   5.3619   6.4705   6.4953

          k = 0.1443 0.2500-0.3119 (  2268 PWs)   bands (ev):

    -6.6837  -6.6837   2.9250   2.9250   5.3233   5.3233   5.8806   5.8806

          k = 0.1443 0.2500 0.1559 (  2261 PWs)   bands (ev):

    -7.2272  -6.0347   2.1978   3.6801   4.2828   5.5059   6.2742   6.3027

          k = 0.1443 0.2500-0.1559 (  2261 PWs)   bands (ev):

    -7.2272  -6.0347   2.1978   3.6801   4.2828   5.5059   6.2742   6.3027

          k = 0.1443 0.2500-0.3119 (  2268 PWs)   bands (ev):

    -6.6837  -6.6837   2.9250   2.9250   5.3233   5.3233   5.8806   5.8806

          k = 0.1443 0.2500-0.6237 (  2263 PWs)   bands (ev):

    -7.4304  -5.7200   1.8960   3.4966   4.4603   5.3619   6.4705   6.4953

          k = 0.2165 0.3750 0.0000 (  2250 PWs)   bands (ev):

    -6.7056  -5.5371   2.0703   2.8724   3.2777   4.9883   5.7802   6.3025

          k = 0.2165 0.3750-0.3119 (  2254 PWs)   bands (ev):

    -6.1482  -6.1482   1.8775   1.8775   5.4289   5.4289   5.5783   5.5783

          k = 0.2165 0.3750 0.1559 (  2254 PWs)   bands (ev):

    -6.5480  -5.7211   1.7254   2.5829   4.0242   5.1506   6.0045   6.0720

          k = 0.2165 0.3750-0.1559 (  2254 PWs)   bands (ev):

    -6.5480  -5.7211   1.7254   2.5829   4.0242   5.1506   6.0045   6.0720

          k = 0.2165 0.3750-0.3119 (  2254 PWs)   bands (ev):

    -6.1482  -6.1482   1.8775   1.8775   5.4289   5.4289   5.5783   5.5783

          k = 0.2165 0.3750-0.6237 (  2250 PWs)   bands (ev):

    -6.7056  -5.5371   2.0703   2.8724   3.2777   4.9883   5.7802   6.3025

          k =-0.2887-0.5000 0.0000 (  2256 PWs)   bands (ev):

    -6.2489  -5.5748   1.5278   2.7819   3.6081   4.8491   5.1590   6.2209

          k =-0.2887-0.5000-0.3119 (  2252 PWs)   bands (ev):

    -5.8876  -5.8876   1.3817   1.3818   5.4613   5.4613   5.5564   5.5564

          k =-0.2887-0.5000 0.1559 (  2250 PWs)   bands (ev):

    -6.1405  -5.6586   1.2923   2.1149   4.3709   5.0170   5.7203   5.9780

          k =-0.2887-0.5000-0.1559 (  2250 PWs)   bands (ev):

    -6.1405  -5.6586   1.2923   2.1149   4.3709   5.0170   5.7203   5.9780

          k =-0.2887-0.5000-0.3119 (  2252 PWs)   bands (ev):

    -5.8876  -5.8876   1.3817   1.3818   5.4613   5.4613   5.5564   5.5564

          k =-0.2887-0.5000-0.6237 (  2256 PWs)   bands (ev):

    -6.2489  -5.5748   1.5278   2.7819   3.6081   4.8491   5.1590   6.2209

          k = 0.2165 0.1250 0.0000 (  2257 PWs)   bands (ev):

    -7.6018  -5.7914   1.6794   4.2753   4.4426   5.6658   6.3531   6.5992

          k = 0.2165 0.1250-0.3119 (  2262 PWs)   bands (ev):

    -6.8226  -6.8226   3.2030   3.2030   5.4025   5.4025   5.8790   5.8790

          k = 0.2165 0.1250 0.1559 (  2257 PWs)   bands (ev):

    -7.3910  -6.1327   2.1643   4.1452   4.6120   5.5013   6.1703   6.4138

          k = 0.2165 0.1250-0.1559 (  2257 PWs)   bands (ev):

    -7.3910  -6.1327   2.1643   4.1452   4.6120   5.5013   6.1703   6.4138

          k = 0.2165 0.1250-0.3119 (  2262 PWs)   bands (ev):

    -6.8226  -6.8226   3.2030   3.2030   5.4025   5.4025   5.8790   5.8790

          k = 0.2165 0.1250-0.6237 (  2257 PWs)   bands (ev):

    -7.6018  -5.7914   1.6794   4.2753   4.4426   5.6658   6.3531   6.5992

          k = 0.2887 0.2500 0.0000 (  2256 PWs)   bands (ev):

    -6.9600  -5.5666   2.5096   2.8097   3.5166   4.9171   5.9739   6.0962

          k = 0.2887 0.2500-0.3119 (  2248 PWs)   bands (ev):

    -6.3217  -6.3217   2.3859   2.3859   4.9813   4.9813   5.7112   5.7112

          k = 0.2887 0.2500 0.1559 (  2257 PWs)   bands (ev):

    -6.7828  -5.8026   2.1650   2.9493   4.0760   4.8618   5.6793   6.2771

          k = 0.2887 0.2500-0.1559 (  2257 PWs)   bands (ev):

    -6.7828  -5.8026   2.1650   2.9493   4.0760   4.8618   5.6793   6.2771

          k = 0.2887 0.2500-0.3119 (  2248 PWs)   bands (ev):

    -6.3217  -6.3217   2.3859   2.3859   4.9813   4.9813   5.7112   5.7112

          k = 0.2887 0.2500-0.6237 (  2256 PWs)   bands (ev):

    -6.9600  -5.5666   2.5096   2.8097   3.5166   4.9171   5.9739   6.0962

          k = 0.3608 0.3750 0.0000 (  2258 PWs)   bands (ev):

    -6.2969  -5.5340   1.8124   2.9721   3.5128   4.3549   5.3266   5.7406

          k = 0.3608 0.3750-0.3119 (  2260 PWs)   bands (ev):

    -5.9003  -5.9003   1.6502   1.6502   4.6380   4.6380   5.8748   5.8748

          k = 0.3608 0.3750 0.1559 (  2261 PWs)   bands (ev):

    -6.1797  -5.6357   1.5776   2.3244   4.0315   4.8055   5.3341   5.9469

          k = 0.3608 0.3750-0.1559 (  2261 PWs)   bands (ev):

    -6.1797  -5.6357   1.5776   2.3244   4.0315   4.8055   5.3341   5.9469

          k = 0.3608 0.3750-0.3119 (  2260 PWs)   bands (ev):

    -5.9003  -5.9003   1.6502   1.6502   4.6380   4.6380   5.8748   5.8748

          k = 0.3608 0.3750-0.6237 (  2258 PWs)   bands (ev):

    -6.2969  -5.5340   1.8124   2.9721   3.5128   4.3549   5.3266   5.7406

          k = 0.4330 0.2500 0.0000 (  2261 PWs)   bands (ev):

    -6.3398  -5.4987   2.3655   2.8642   3.4274   4.0758   5.1304   5.4896

          k = 0.4330 0.2500-0.3119 (  2252 PWs)   bands (ev):

    -5.9129  -5.9129   2.0230   2.0230   3.9868   3.9868   5.9417   5.9417

          k = 0.4330 0.2500 0.1559 (  2251 PWs)   bands (ev):

    -6.2151  -5.6166   2.1830   2.2917   3.7365   4.4825   4.8913   6.0231

          k = 0.4330 0.2500-0.1559 (  2251 PWs)   bands (ev):

    -6.2151  -5.6166   2.1830   2.2917   3.7365   4.4825   4.8913   6.0231

          k = 0.4330 0.2500-0.3119 (  2252 PWs)   bands (ev):

    -5.9129  -5.9129   2.0230   2.0230   3.9868   3.9868   5.9417   5.9417

          k = 0.4330 0.2500-0.6237 (  2261 PWs)   bands (ev):

    -6.3398  -5.4987   2.3655   2.8642   3.4274   4.0758   5.1304   5.4896

          k = 0.5052 0.3750 0.0000 (  2256 PWs)   bands (ev):

    -5.9208  -5.6089   2.0447   3.1493   3.3302   4.1618   4.7553   4.9076

          k = 0.5052 0.3750-0.3119 (  2250 PWs)   bands (ev):

    -5.7258  -5.7258   1.9442   1.9442   3.4698   3.4698   6.0755   6.0755

          k = 0.5052 0.3750 0.1559 (  2257 PWs)   bands (ev):

    -5.8571  -5.6338   1.9734   2.5048   3.0119   4.2899   5.1615   5.6799

          k = 0.5052 0.3750-0.1559 (  2257 PWs)   bands (ev):

    -5.8571  -5.6338   1.9734   2.5048   3.0119   4.2899   5.1615   5.6799

          k = 0.5052 0.3750-0.3119 (  2250 PWs)   bands (ev):

    -5.7258  -5.7258   1.9442   1.9442   3.4698   3.4698   6.0755   6.0755

          k = 0.5052 0.3750-0.6237 (  2256 PWs)   bands (ev):

    -5.9208  -5.6089   2.0447   3.1493   3.3302   4.1618   4.7553   4.9076

     highest occupied level (ev):     6.9011

     Writing output data file ./_ph0/aln.save/

     phonons of Si mesh                                                         

     bravais-lattice index     =            0
     lattice parameter (alat)  =       5.9161  a.u.
     unit-cell volume          =     287.5046 (a.u.)^3
     number of atoms/cell      =            4
     number of atomic types    =            2
     kinetic-energy cut-off    =      60.0000  Ry
     charge density cut-off    =     600.0000  Ry
     convergence threshold     =      1.0E-18
     beta                      =       0.5000
     number of iterations used =            4
     Exchange-correlation= PBE
                           (   1   4   3   4   0   0   0)


     celldm(1)=    5.91610  celldm(2)=    0.00000  celldm(3)=    0.00000
     celldm(4)=    0.00000  celldm(5)=    0.00000  celldm(6)=    0.00000

     crystal axes: (cart. coord. in units of alat)
               a(1) = (  0.8660 -0.5000  0.0000 )  
               a(2) = (  0.0000  1.0000  0.0000 )  
               a(3) = (  0.0000  0.0000  1.6033 )  

     reciprocal axes: (cart. coord. in units 2 pi/alat)
               b(1) = (  1.1547  0.0000  0.0000 )  
               b(2) = (  0.5774  1.0000  0.0000 )  
               b(3) = (  0.0000  0.0000  0.6237 )  


     Atoms inside the unit cell: 

     Cartesian axes

     site n.  atom      mass           positions (alat units)
        1     Al  26.9815   tau(    1) = (    0.28868    0.50000   -0.00120  )
        2     Al  26.9815   tau(    2) = (    0.57735    0.00000    0.80043  )
        3     N   14.0067   tau(    3) = (    0.28868    0.50000    0.61045  )
        4     N   14.0067   tau(    4) = (    0.57735    0.00000    1.41208  )

     Computing dynamical matrix for 
                    q = (   0.0000000   0.0000000  -0.3118617 )
 
     13 Sym.Ops. (with q -> -q+G )


     G cutoff =  531.9396  (   5941 G-vectors)     FFT grid: ( 48, 48, 80)
     G cutoff =  212.7758  (   1508 G-vectors)  smooth grid: ( 30, 30, 48)
     number of k points=    60

     PseudoPot. # 1 for Al read from file:
     ./pseudo/Al.pbe-n-kjpaw_psl.1.0.0.UPF
     MD5 check sum: cfc449ca30b5f3223ec38ddd88ac046d
     Pseudo is Projector augmented-wave + core cor, Zval =  3.0
     Generated using "atomic" code by A. Dal Corso  v.5.1
     Shape of augmentation charge: PSQ
     Using radial grid of 1135 points,  6 beta functions with: 
                l(1) =   0
                l(2) =   0
                l(3) =   1
                l(4) =   1
                l(5) =   2
                l(6) =   2
     Q(r) pseudized with 0 coefficients 


     PseudoPot. # 2 for N  read from file:
     ./pseudo/N.pbe-n-radius_5.UPF
     MD5 check sum: 16739722b17309cd8fe442a2ace49922
     Pseudo is Ultrasoft + core correction, Zval =  5.0
     Generated using "atomic" code by A. Dal Corso  v.5.1
     Using radial grid of 1085 points,  4 beta functions with: 
                l(1) =   0
                l(2) =   0
                l(3) =   1
                l(4) =   1
     Q(r) pseudized with 0 coefficients 


     Mode symmetry, C_6v (6mm)  point group:


     Atomic displacements:
     There are    4 irreducible representations

     Representation     1      2 modes -  To be done

     Representation     2      2 modes -  To be done

     Representation     3      4 modes -  To be done

     Representation     4      4 modes -  To be done



     Alpha used in Ewald sum =   2.8000
     PHONON       :     47.08s CPU     51.15s WALL



     Representation #   1 modes #   1   2

     Self-consistent Calculation

      iter #   1 total cpu time :    51.7 secs   av.it.:   6.4
      thresh= 1.000E-02 alpha_mix =  0.500 |ddv_scf|^2 =  2.557E-06

      iter #   2 total cpu time :    52.4 secs   av.it.:  11.6
      thresh= 1.599E-04 alpha_mix =  0.500 |ddv_scf|^2 =  2.249E-06

      iter #   3 total cpu time :    53.0 secs   av.it.:  11.1
      thresh= 1.500E-04 alpha_mix =  0.500 |ddv_scf|^2 =  1.440E-09

      iter #   4 total cpu time :    53.6 secs   av.it.:  12.1
      thresh= 3.795E-06 alpha_mix =  0.500 |ddv_scf|^2 =  1.153E-10

      iter #   5 total cpu time :    54.3 secs   av.it.:  12.1
      thresh= 1.074E-06 alpha_mix =  0.500 |ddv_scf|^2 =  7.698E-12

      iter #   6 total cpu time :    54.9 secs   av.it.:  11.7
      thresh= 2.775E-07 alpha_mix =  0.500 |ddv_scf|^2 =  8.845E-13

      iter #   7 total cpu time :    55.6 secs   av.it.:  12.0
      thresh= 9.405E-08 alpha_mix =  0.500 |ddv_scf|^2 =  3.284E-14

      iter #   8 total cpu time :    56.3 secs   av.it.:  12.0
      thresh= 1.812E-08 alpha_mix =  0.500 |ddv_scf|^2 =  7.314E-15

      iter #   9 total cpu time :    57.0 secs   av.it.:  11.8
      thresh= 8.552E-09 alpha_mix =  0.500 |ddv_scf|^2 =  3.043E-15

      iter #  10 total cpu time :    57.6 secs   av.it.:  11.7
      thresh= 5.516E-09 alpha_mix =  0.500 |ddv_scf|^2 =  2.125E-17

      iter #  11 total cpu time :    58.3 secs   av.it.:  12.2
      thresh= 4.609E-10 alpha_mix =  0.500 |ddv_scf|^2 =  2.191E-18

      iter #  12 total cpu time :    58.9 secs   av.it.:  12.4
      thresh= 1.480E-10 alpha_mix =  0.500 |ddv_scf|^2 =  4.461E-19

     End of self-consistent calculation

     Convergence has been achieved 


     Representation #   2 modes #   3   4

     Self-consistent Calculation

      iter #   1 total cpu time :    59.6 secs   av.it.:   7.8
      thresh= 1.000E-02 alpha_mix =  0.500 |ddv_scf|^2 =  1.897E-05

      iter #   2 total cpu time :    60.2 secs   av.it.:  11.3
      thresh= 4.356E-04 alpha_mix =  0.500 |ddv_scf|^2 =  1.646E-05

      iter #   3 total cpu time :    60.9 secs   av.it.:  10.9
      thresh= 4.058E-04 alpha_mix =  0.500 |ddv_scf|^2 =  4.823E-09

      iter #   4 total cpu time :    61.5 secs   av.it.:  13.1
      thresh= 6.945E-06 alpha_mix =  0.500 |ddv_scf|^2 =  9.315E-09

      iter #   5 total cpu time :    62.2 secs   av.it.:  11.3
      thresh= 9.651E-06 alpha_mix =  0.500 |ddv_scf|^2 =  8.835E-12

      iter #   6 total cpu time :    62.8 secs   av.it.:  12.1
      thresh= 2.972E-07 alpha_mix =  0.500 |ddv_scf|^2 =  6.018E-13

      iter #   7 total cpu time :    63.5 secs   av.it.:  12.9
      thresh= 7.757E-08 alpha_mix =  0.500 |ddv_scf|^2 =  1.800E-14

      iter #   8 total cpu time :    64.1 secs   av.it.:  12.3
      thresh= 1.342E-08 alpha_mix =  0.500 |ddv_scf|^2 =  1.051E-14

      iter #   9 total cpu time :    64.8 secs   av.it.:  11.8
      thresh= 1.025E-08 alpha_mix =  0.500 |ddv_scf|^2 =  2.021E-15

      iter #  10 total cpu time :    65.4 secs   av.it.:  12.7
      thresh= 4.495E-09 alpha_mix =  0.500 |ddv_scf|^2 =  1.079E-15

      iter #  11 total cpu time :    66.1 secs   av.it.:  11.5
      thresh= 3.285E-09 alpha_mix =  0.500 |ddv_scf|^2 =  1.461E-17

      iter #  12 total cpu time :    66.7 secs   av.it.:  12.4
      thresh= 3.823E-10 alpha_mix =  0.500 |ddv_scf|^2 =  1.274E-18

      iter #  13 total cpu time :    67.4 secs   av.it.:  12.4
      thresh= 1.129E-10 alpha_mix =  0.500 |ddv_scf|^2 =  1.220E-19

     End of self-consistent calculation

     Convergence has been achieved 


     Representation #   3 modes #   5   6   7   8

     Self-consistent Calculation

      iter #   1 total cpu time :    68.6 secs   av.it.:   7.5
      thresh= 1.000E-02 alpha_mix =  0.500 |ddv_scf|^2 =  4.018E-08

      iter #   2 total cpu time :    69.9 secs   av.it.:  14.0
      thresh= 2.005E-05 alpha_mix =  0.500 |ddv_scf|^2 =  1.874E-09

      iter #   3 total cpu time :    71.2 secs   av.it.:  14.3
      thresh= 4.329E-06 alpha_mix =  0.500 |ddv_scf|^2 =  4.066E-12

      iter #   4 total cpu time :    72.6 secs   av.it.:  14.8
      thresh= 2.017E-07 alpha_mix =  0.500 |ddv_scf|^2 =  4.129E-14

      iter #   5 total cpu time :    73.9 secs   av.it.:  13.6
      thresh= 2.032E-08 alpha_mix =  0.500 |ddv_scf|^2 =  6.554E-15

      iter #   6 total cpu time :    75.3 secs   av.it.:  14.5
      thresh= 8.095E-09 alpha_mix =  0.500 |ddv_scf|^2 =  1.027E-16

      iter #   7 total cpu time :    76.6 secs   av.it.:  14.0
      thresh= 1.013E-09 alpha_mix =  0.500 |ddv_scf|^2 =  7.047E-19

     End of self-consistent calculation

     Convergence has been achieved 


     Representation #   4 modes #   9  10  11  12

     Self-consistent Calculation

      iter #   1 total cpu time :    77.8 secs   av.it.:   5.2
      thresh= 1.000E-02 alpha_mix =  0.500 |ddv_scf|^2 =  6.857E-10

      iter #   2 total cpu time :    79.1 secs   av.it.:  13.4
      thresh= 2.619E-06 alpha_mix =  0.500 |ddv_scf|^2 =  1.491E-10

      iter #   3 total cpu time :    80.4 secs   av.it.:  13.8
      thresh= 1.221E-06 alpha_mix =  0.500 |ddv_scf|^2 =  3.086E-12

      iter #   4 total cpu time :    81.7 secs   av.it.:  14.1
      thresh= 1.757E-07 alpha_mix =  0.500 |ddv_scf|^2 =  1.283E-13

      iter #   5 total cpu time :    83.1 secs   av.it.:  14.1
      thresh= 3.582E-08 alpha_mix =  0.500 |ddv_scf|^2 =  1.123E-14

      iter #   6 total cpu time :    84.4 secs   av.it.:  14.2
      thresh= 1.060E-08 alpha_mix =  0.500 |ddv_scf|^2 =  1.670E-17

      iter #   7 total cpu time :    85.9 secs   av.it.:  14.6
      thresh= 4.086E-10 alpha_mix =  0.500 |ddv_scf|^2 =  2.767E-19

     End of self-consistent calculation

     Convergence has been achieved 
 
     Number of q in the star =    1
     List of q in the star:
          1   0.000000000   0.000000000  -0.311861657

     Diagonalizing the dynamical matrix

     q = (    0.000000000   0.000000000  -0.311861657 ) 

 **************************************************************************
     freq (    1) =       5.167317 [THz] =     172.363143 [cm-1]
     freq (    2) =       5.167317 [THz] =     172.363143 [cm-1]
     freq (    3) =       5.167317 [THz] =     172.363144 [cm-1]
     freq (    4) =       5.167317 [THz] =     172.363144 [cm-1]
     freq (    5) =      10.223576 [THz] =     341.021782 [cm-1]
     freq (    6) =      10.223576 [THz] =     341.021782 [cm-1]
     freq (    7) =      19.372856 [THz] =     646.208934 [cm-1]
     freq (    8) =      19.372856 [THz] =     646.208934 [cm-1]
     freq (    9) =      19.372857 [THz] =     646.208938 [cm-1]
     freq (   10) =      19.372857 [THz] =     646.208938 [cm-1]
     freq (   11) =      24.202170 [THz] =     807.297489 [cm-1]
     freq (   12) =      24.202170 [THz] =     807.297489 [cm-1]
 **************************************************************************

     Mode symmetry, C_6v (6mm)  point group:

     freq (   1-   2) =        172.4  [cm-1]   --> E_1                
     freq (   3-   4) =        172.4  [cm-1]   --> E_2                
     freq (   5-   5) =        341.0  [cm-1]   --> A_1                
     freq (   6-   6) =        341.0  [cm-1]   --> B_2                
     freq (   7-   8) =        646.2  [cm-1]   --> E_1                
     freq (   9-  10) =        646.2  [cm-1]   --> E_2                
     freq (  11-  11) =        807.3  [cm-1]   --> A_1                
     freq (  12-  12) =        807.3  [cm-1]   --> B_2                

     Calculation of q =    0.1443376   0.2500000   0.0000000
 
     Parallelization info
     --------------------
     sticks:   dense  smooth     PW     G-vecs:    dense   smooth      PW
     Min         119      48     15                 5933     1506     271
     Max         120      49     16                 5941     1511     276
     Sum        1429     583    187                71209    18113    3273
 
     Using Slab Decomposition
 

     Title: 
     phonons of Si mesh                                                         


     bravais-lattice index     =            0
     lattice parameter (alat)  =       5.9161  a.u.
     unit-cell volume          =     287.5046 (a.u.)^3
     number of atoms/cell      =            4
     number of atomic types    =            2
     number of electrons       =        16.00
     number of Kohn-Sham states=            8
     kinetic-energy cutoff     =      60.0000  Ry
     charge density cutoff     =     600.0000  Ry
     Exchange-correlation= PBE
                           (   1   4   3   4   0   0   0)

     celldm(1)=   5.916099  celldm(2)=   0.000000  celldm(3)=   0.000000
     celldm(4)=   0.000000  celldm(5)=   0.000000  celldm(6)=   0.000000

     crystal axes: (cart. coord. in units of alat)
               a(1) = (   0.866025  -0.500000   0.000000 )  
               a(2) = (   0.000000   1.000000   0.000000 )  
               a(3) = (   0.000000   0.000000   1.603275 )  

     reciprocal axes: (cart. coord. in units 2 pi/alat)
               b(1) = (  1.154701  0.000000  0.000000 )  
               b(2) = (  0.577350  1.000000  0.000000 )  
               b(3) = (  0.000000  0.000000  0.623723 )  


     PseudoPot. # 1 for Al read from file:
     ./pseudo/Al.pbe-n-kjpaw_psl.1.0.0.UPF
     MD5 check sum: cfc449ca30b5f3223ec38ddd88ac046d
     Pseudo is Projector augmented-wave + core cor, Zval =  3.0
     Generated using "atomic" code by A. Dal Corso  v.5.1
     Shape of augmentation charge: PSQ
     Using radial grid of 1135 points,  6 beta functions with: 
                l(1) =   0
                l(2) =   0
                l(3) =   1
                l(4) =   1
                l(5) =   2
                l(6) =   2
     Q(r) pseudized with 0 coefficients 


     PseudoPot. # 2 for N  read from file:
     ./pseudo/N.pbe-n-radius_5.UPF
     MD5 check sum: 16739722b17309cd8fe442a2ace49922
     Pseudo is Ultrasoft + core correction, Zval =  5.0
     Generated using "atomic" code by A. Dal Corso  v.5.1
     Using radial grid of 1085 points,  4 beta functions with: 
                l(1) =   0
                l(2) =   0
                l(3) =   1
                l(4) =   1
     Q(r) pseudized with 0 coefficients 


     atomic species   valence    mass     pseudopotential
        Al             3.00    26.98154     Al( 1.00)
        N              5.00    14.00670     N ( 1.00)

     12 Sym. Ops. (no inversion) found



   Cartesian axes

     site n.     atom                  positions (alat units)
         1           Al  tau(   1) = (   0.2886751   0.5000000  -0.0012027  )
         2           Al  tau(   2) = (   0.5773503   0.0000000   0.8004348  )
         3           N   tau(   3) = (   0.2886751   0.5000000   0.6104472  )
         4           N   tau(   4) = (   0.5773503   0.0000000   1.4120847  )

     number of k points=   288

     Number of k-points >= 100: set verbosity='high' to print them.

     Dense  grid:    71209 G-vectors     FFT dimensions: (  48,  48,  80)

     Smooth grid:    18113 G-vectors     FFT dimensions: (  30,  30,  48)

     Estimated max dynamical RAM per process >      10.59 MB

     Estimated total dynamical RAM >     508.13 MB

     The potential is recalculated from file :
     ./_ph0/aln.save/charge-density

     Starting wfcs are   16 atomic wfcs
     Checking if some PAW data can be deallocated... 

     Band Structure Calculation
     Davidson diagonalization with overlap

     ethr =  6.25E-11,  avg # of iterations = 13.7

     total cpu time spent up to now is        5.5 secs

     End of band structure calculation

     Number of k-points >= 100: set verbosity='high' to print the bands.

     highest occupied level (ev):     6.9011

     Writing output data file ./_ph0/aln.save/

     phonons of Si mesh                                                         

     bravais-lattice index     =            0
     lattice parameter (alat)  =       5.9161  a.u.
     unit-cell volume          =     287.5046 (a.u.)^3
     number of atoms/cell      =            4
     number of atomic types    =            2
     kinetic-energy cut-off    =      60.0000  Ry
     charge density cut-off    =     600.0000  Ry
     convergence threshold     =      1.0E-18
     beta                      =       0.5000
     number of iterations used =            4
     Exchange-correlation= PBE
                           (   1   4   3   4   0   0   0)


     celldm(1)=    5.91610  celldm(2)=    0.00000  celldm(3)=    0.00000
     celldm(4)=    0.00000  celldm(5)=    0.00000  celldm(6)=    0.00000

     crystal axes: (cart. coord. in units of alat)
               a(1) = (  0.8660 -0.5000  0.0000 )  
               a(2) = (  0.0000  1.0000  0.0000 )  
               a(3) = (  0.0000  0.0000  1.6033 )  

     reciprocal axes: (cart. coord. in units 2 pi/alat)
               b(1) = (  1.1547  0.0000  0.0000 )  
               b(2) = (  0.5774  1.0000  0.0000 )  
               b(3) = (  0.0000  0.0000  0.6237 )  


     Atoms inside the unit cell: 

     Cartesian axes

     site n.  atom      mass           positions (alat units)
        1     Al  26.9815   tau(    1) = (    0.28868    0.50000   -0.00120  )
        2     Al  26.9815   tau(    2) = (    0.57735    0.00000    0.80043  )
        3     N   14.0067   tau(    3) = (    0.28868    0.50000    0.61045  )
        4     N   14.0067   tau(    4) = (    0.57735    0.00000    1.41208  )

     Computing dynamical matrix for 
                    q = (   0.1443376   0.2500000   0.0000000 )
 
      2 Sym.Ops. (no q -> -q+G )


     G cutoff =  531.9396  (   5941 G-vectors)     FFT grid: ( 48, 48, 80)
     G cutoff =  212.7758  (   1508 G-vectors)  smooth grid: ( 30, 30, 48)
     number of k points=   288

     PseudoPot. # 1 for Al read from file:
     ./pseudo/Al.pbe-n-kjpaw_psl.1.0.0.UPF
     MD5 check sum: cfc449ca30b5f3223ec38ddd88ac046d
     Pseudo is Projector augmented-wave + core cor, Zval =  3.0
     Generated using "atomic" code by A. Dal Corso  v.5.1
     Shape of augmentation charge: PSQ
     Using radial grid of 1135 points,  6 beta functions with: 
                l(1) =   0
                l(2) =   0
                l(3) =   1
                l(4) =   1
                l(5) =   2
                l(6) =   2
     Q(r) pseudized with 0 coefficients 


     PseudoPot. # 2 for N  read from file:
     ./pseudo/N.pbe-n-radius_5.UPF
     MD5 check sum: 16739722b17309cd8fe442a2ace49922
     Pseudo is Ultrasoft + core correction, Zval =  5.0
     Generated using "atomic" code by A. Dal Corso  v.5.1
     Using radial grid of 1085 points,  4 beta functions with: 
                l(1) =   0
                l(2) =   0
                l(3) =   1
                l(4) =   1
     Q(r) pseudized with 0 coefficients 


     Mode symmetry, C_s (m)     point group:


     Atomic displacements:
     There are   12 irreducible representations

     Representation     1      1 modes -  To be done

     Representation     2      1 modes -  To be done

     Representation     3      1 modes -  To be done

     Representation     4      1 modes -  To be done

     Representation     5      1 modes -  To be done

     Representation     6      1 modes -  To be done

     Representation     7      1 modes -  To be done

     Representation     8      1 modes -  To be done

     Representation     9      1 modes -  To be done

     Representation    10      1 modes -  To be done

     Representation    11      1 modes -  To be done

     Representation    12      1 modes -  To be done



     Alpha used in Ewald sum =   2.8000
     PHONON       :   1m24.64s CPU   1m31.55s WALL



     Representation #   1 mode #   1

     Self-consistent Calculation

      iter #   1 total cpu time :    92.2 secs   av.it.:   8.0
      thresh= 1.000E-02 alpha_mix =  0.500 |ddv_scf|^2 =  4.091E-05

      iter #   2 total cpu time :    92.9 secs   av.it.:  11.5
      thresh= 6.396E-04 alpha_mix =  0.500 |ddv_scf|^2 =  3.663E-05

      iter #   3 total cpu time :    93.6 secs   av.it.:  10.5
      thresh= 6.053E-04 alpha_mix =  0.500 |ddv_scf|^2 =  1.219E-08

      iter #   4 total cpu time :    94.4 secs   av.it.:  13.2
      thresh= 1.104E-05 alpha_mix =  0.500 |ddv_scf|^2 =  1.969E-08

      iter #   5 total cpu time :    95.1 secs   av.it.:  11.5
      thresh= 1.403E-05 alpha_mix =  0.500 |ddv_scf|^2 =  3.050E-10

      iter #   6 total cpu time :    95.8 secs   av.it.:  12.4
      thresh= 1.747E-06 alpha_mix =  0.500 |ddv_scf|^2 =  3.187E-11

      iter #   7 total cpu time :    96.5 secs   av.it.:  12.5
      thresh= 5.645E-07 alpha_mix =  0.500 |ddv_scf|^2 =  2.618E-12

      iter #   8 total cpu time :    97.3 secs   av.it.:  12.7
      thresh= 1.618E-07 alpha_mix =  0.500 |ddv_scf|^2 =  2.683E-13

      iter #   9 total cpu time :    98.0 secs   av.it.:  12.6
      thresh= 5.180E-08 alpha_mix =  0.500 |ddv_scf|^2 =  1.042E-14

      iter #  10 total cpu time :    98.8 secs   av.it.:  12.4
      thresh= 1.021E-08 alpha_mix =  0.500 |ddv_scf|^2 =  9.008E-16

      iter #  11 total cpu time :    99.5 secs   av.it.:  12.5
      thresh= 3.001E-09 alpha_mix =  0.500 |ddv_scf|^2 =  1.678E-16

      iter #  12 total cpu time :   100.2 secs   av.it.:  12.2
      thresh= 1.295E-09 alpha_mix =  0.500 |ddv_scf|^2 =  6.154E-17

      iter #  13 total cpu time :   100.9 secs   av.it.:  12.1
      thresh= 7.845E-10 alpha_mix =  0.500 |ddv_scf|^2 =  4.716E-18

      iter #  14 total cpu time :   101.7 secs   av.it.:  12.8
      thresh= 2.172E-10 alpha_mix =  0.500 |ddv_scf|^2 =  9.927E-19

     End of self-consistent calculation

     Convergence has been achieved 


     Representation #   2 mode #   2

     Self-consistent Calculation

      iter #   1 total cpu time :   102.4 secs   av.it.:   8.0
      thresh= 1.000E-02 alpha_mix =  0.500 |ddv_scf|^2 =  4.710E-05

      iter #   2 total cpu time :   103.1 secs   av.it.:  11.5
      thresh= 6.863E-04 alpha_mix =  0.500 |ddv_scf|^2 =  4.267E-05

      iter #   3 total cpu time :   103.7 secs   av.it.:  10.5
      thresh= 6.532E-04 alpha_mix =  0.500 |ddv_scf|^2 =  1.223E-08

      iter #   4 total cpu time :   104.5 secs   av.it.:  13.1
      thresh= 1.106E-05 alpha_mix =  0.500 |ddv_scf|^2 =  2.287E-08

      iter #   5 total cpu time :   105.2 secs   av.it.:  11.4
      thresh= 1.512E-05 alpha_mix =  0.500 |ddv_scf|^2 =  4.241E-10

      iter #   6 total cpu time :   105.9 secs   av.it.:  12.2
      thresh= 2.059E-06 alpha_mix =  0.500 |ddv_scf|^2 =  3.501E-11

      iter #   7 total cpu time :   106.6 secs   av.it.:  12.4
      thresh= 5.917E-07 alpha_mix =  0.500 |ddv_scf|^2 =  1.913E-12

      iter #   8 total cpu time :   107.4 secs   av.it.:  12.7
      thresh= 1.383E-07 alpha_mix =  0.500 |ddv_scf|^2 =  1.834E-13

      iter #   9 total cpu time :   108.1 secs   av.it.:  12.7
      thresh= 4.283E-08 alpha_mix =  0.500 |ddv_scf|^2 =  8.192E-15

      iter #  10 total cpu time :   108.9 secs   av.it.:  12.4
      thresh= 9.051E-09 alpha_mix =  0.500 |ddv_scf|^2 =  1.959E-15

      iter #  11 total cpu time :   109.6 secs   av.it.:  11.9
      thresh= 4.426E-09 alpha_mix =  0.500 |ddv_scf|^2 =  2.040E-16

      iter #  12 total cpu time :   110.3 secs   av.it.:  12.2
      thresh= 1.428E-09 alpha_mix =  0.500 |ddv_scf|^2 =  1.469E-16

      iter #  13 total cpu time :   111.0 secs   av.it.:  11.5
      thresh= 1.212E-09 alpha_mix =  0.500 |ddv_scf|^2 =  5.463E-18

      iter #  14 total cpu time :   111.7 secs   av.it.:  12.7
      thresh= 2.337E-10 alpha_mix =  0.500 |ddv_scf|^2 =  2.075E-18

      iter #  15 total cpu time :   112.4 secs   av.it.:  11.9
      thresh= 1.441E-10 alpha_mix =  0.500 |ddv_scf|^2 =  3.811E-19

     End of self-consistent calculation

     Convergence has been achieved 


     Representation #   3 mode #   3

     Self-consistent Calculation

      iter #   1 total cpu time :   113.2 secs   av.it.:   6.1
      thresh= 1.000E-02 alpha_mix =  0.500 |ddv_scf|^2 =  2.422E-07

      iter #   2 total cpu time :   113.9 secs   av.it.:  12.7
      thresh= 4.921E-05 alpha_mix =  0.500 |ddv_scf|^2 =  8.173E-08

      iter #   3 total cpu time :   114.6 secs   av.it.:  12.2
      thresh= 2.859E-05 alpha_mix =  0.500 |ddv_scf|^2 =  5.795E-09

      iter #   4 total cpu time :   115.3 secs   av.it.:  11.6
      thresh= 7.612E-06 alpha_mix =  0.500 |ddv_scf|^2 =  6.701E-10

      iter #   5 total cpu time :   116.1 secs   av.it.:  11.9
      thresh= 2.589E-06 alpha_mix =  0.500 |ddv_scf|^2 =  1.638E-10

      iter #   6 total cpu time :   116.8 secs   av.it.:  11.9
      thresh= 1.280E-06 alpha_mix =  0.500 |ddv_scf|^2 =  5.016E-12

      iter #   7 total cpu time :   117.5 secs   av.it.:  11.7
      thresh= 2.240E-07 alpha_mix =  0.500 |ddv_scf|^2 =  6.438E-13

      iter #   8 total cpu time :   118.3 secs   av.it.:  11.8
      thresh= 8.024E-08 alpha_mix =  0.500 |ddv_scf|^2 =  7.610E-14

      iter #   9 total cpu time :   119.0 secs   av.it.:  11.8
      thresh= 2.759E-08 alpha_mix =  0.500 |ddv_scf|^2 =  9.280E-15

      iter #  10 total cpu time :   119.7 secs   av.it.:  12.2
      thresh= 9.633E-09 alpha_mix =  0.500 |ddv_scf|^2 =  8.303E-16

      iter #  11 total cpu time :   120.4 secs   av.it.:  12.4
      thresh= 2.882E-09 alpha_mix =  0.500 |ddv_scf|^2 =  1.054E-16

      iter #  12 total cpu time :   121.2 secs   av.it.:  12.4
      thresh= 1.027E-09 alpha_mix =  0.500 |ddv_scf|^2 =  2.371E-17

      iter #  13 total cpu time :   121.9 secs   av.it.:  12.1
      thresh= 4.869E-10 alpha_mix =  0.500 |ddv_scf|^2 =  1.341E-18

      iter #  14 total cpu time :   122.6 secs   av.it.:  12.4
      thresh= 1.158E-10 alpha_mix =  0.500 |ddv_scf|^2 =  3.383E-19

     End of self-consistent calculation

     Convergence has been achieved 


     Representation #   4 mode #   4

     Self-consistent Calculation

      iter #   1 total cpu time :   123.3 secs   av.it.:   7.9
      thresh= 1.000E-02 alpha_mix =  0.500 |ddv_scf|^2 =  1.033E-05

      iter #   2 total cpu time :   124.0 secs   av.it.:  11.9
      thresh= 3.215E-04 alpha_mix =  0.500 |ddv_scf|^2 =  6.885E-06

      iter #   3 total cpu time :   124.7 secs   av.it.:  10.8
      thresh= 2.624E-04 alpha_mix =  0.500 |ddv_scf|^2 =  6.079E-08

      iter #   4 total cpu time :   125.4 secs   av.it.:  12.0
      thresh= 2.466E-05 alpha_mix =  0.500 |ddv_scf|^2 =  4.348E-09

      iter #   5 total cpu time :   126.2 secs   av.it.:  12.1
      thresh= 6.594E-06 alpha_mix =  0.500 |ddv_scf|^2 =  1.066E-10

      iter #   6 total cpu time :   126.9 secs   av.it.:  12.6
      thresh= 1.032E-06 alpha_mix =  0.500 |ddv_scf|^2 =  1.350E-11

      iter #   7 total cpu time :   127.6 secs   av.it.:  12.5
      thresh= 3.674E-07 alpha_mix =  0.500 |ddv_scf|^2 =  1.449E-12

      iter #   8 total cpu time :   128.4 secs   av.it.:  12.9
      thresh= 1.204E-07 alpha_mix =  0.500 |ddv_scf|^2 =  4.735E-13

      iter #   9 total cpu time :   129.2 secs   av.it.:  12.5
      thresh= 6.881E-08 alpha_mix =  0.500 |ddv_scf|^2 =  1.134E-14

      iter #  10 total cpu time :   129.9 secs   av.it.:  12.4
      thresh= 1.065E-08 alpha_mix =  0.500 |ddv_scf|^2 =  1.109E-15

      iter #  11 total cpu time :   130.6 secs   av.it.:  12.7
      thresh= 3.330E-09 alpha_mix =  0.500 |ddv_scf|^2 =  7.859E-17

      iter #  12 total cpu time :   131.4 secs   av.it.:  12.5
      thresh= 8.865E-10 alpha_mix =  0.500 |ddv_scf|^2 =  2.487E-17

      iter #  13 total cpu time :   132.1 secs   av.it.:  12.5
      thresh= 4.987E-10 alpha_mix =  0.500 |ddv_scf|^2 =  2.980E-18

      iter #  14 total cpu time :   132.8 secs   av.it.:  12.9
      thresh= 1.726E-10 alpha_mix =  0.500 |ddv_scf|^2 =  4.721E-19

     End of self-consistent calculation

     Convergence has been achieved 


     Representation #   5 mode #   5

     Self-consistent Calculation

      iter #   1 total cpu time :   133.6 secs   av.it.:   6.0
      thresh= 1.000E-02 alpha_mix =  0.500 |ddv_scf|^2 =  2.467E-07

      iter #   2 total cpu time :   134.3 secs   av.it.:  12.6
      thresh= 4.967E-05 alpha_mix =  0.500 |ddv_scf|^2 =  7.623E-08

      iter #   3 total cpu time :   135.1 secs   av.it.:  12.3
      thresh= 2.761E-05 alpha_mix =  0.500 |ddv_scf|^2 =  3.887E-09

      iter #   4 total cpu time :   135.8 secs   av.it.:  11.9
      thresh= 6.234E-06 alpha_mix =  0.500 |ddv_scf|^2 =  3.902E-10

      iter #   5 total cpu time :   136.5 secs   av.it.:  12.0
      thresh= 1.975E-06 alpha_mix =  0.500 |ddv_scf|^2 =  2.008E-10

      iter #   6 total cpu time :   137.2 secs   av.it.:  11.5
      thresh= 1.417E-06 alpha_mix =  0.500 |ddv_scf|^2 =  3.871E-12

      iter #   7 total cpu time :   137.9 secs   av.it.:  11.9
      thresh= 1.968E-07 alpha_mix =  0.500 |ddv_scf|^2 =  6.604E-13

      iter #   8 total cpu time :   138.7 secs   av.it.:  12.1
      thresh= 8.127E-08 alpha_mix =  0.500 |ddv_scf|^2 =  9.190E-14

      iter #   9 total cpu time :   139.4 secs   av.it.:  12.0
      thresh= 3.031E-08 alpha_mix =  0.500 |ddv_scf|^2 =  6.215E-15

      iter #  10 total cpu time :   140.1 secs   av.it.:  12.0
      thresh= 7.883E-09 alpha_mix =  0.500 |ddv_scf|^2 =  8.126E-16

      iter #  11 total cpu time :   140.8 secs   av.it.:  12.4
      thresh= 2.851E-09 alpha_mix =  0.500 |ddv_scf|^2 =  1.985E-16

      iter #  12 total cpu time :   141.6 secs   av.it.:  12.3
      thresh= 1.409E-09 alpha_mix =  0.500 |ddv_scf|^2 =  1.322E-17

      iter #  13 total cpu time :   142.3 secs   av.it.:  12.2
      thresh= 3.636E-10 alpha_mix =  0.500 |ddv_scf|^2 =  6.049E-19

     End of self-consistent calculation

     Convergence has been achieved 


     Representation #   6 mode #   6

     Self-consistent Calculation

      iter #   1 total cpu time :   142.9 secs   av.it.:   7.8
      thresh= 1.000E-02 alpha_mix =  0.500 |ddv_scf|^2 =  4.130E-06

      iter #   2 total cpu time :   143.7 secs   av.it.:  12.2
      thresh= 2.032E-04 alpha_mix =  0.500 |ddv_scf|^2 =  8.390E-07

      iter #   3 total cpu time :   144.4 secs   av.it.:  11.4
      thresh= 9.160E-05 alpha_mix =  0.500 |ddv_scf|^2 =  1.323E-07

      iter #   4 total cpu time :   145.1 secs   av.it.:  11.3
      thresh= 3.637E-05 alpha_mix =  0.500 |ddv_scf|^2 =  1.680E-09

      iter #   5 total cpu time :   145.8 secs   av.it.:  12.6
      thresh= 4.099E-06 alpha_mix =  0.500 |ddv_scf|^2 =  6.119E-11

      iter #   6 total cpu time :   146.6 secs   av.it.:  12.6
      thresh= 7.822E-07 alpha_mix =  0.500 |ddv_scf|^2 =  9.648E-12

      iter #   7 total cpu time :   147.4 secs   av.it.:  12.7
      thresh= 3.106E-07 alpha_mix =  0.500 |ddv_scf|^2 =  1.420E-12

      iter #   8 total cpu time :   148.1 secs   av.it.:  12.9
      thresh= 1.192E-07 alpha_mix =  0.500 |ddv_scf|^2 =  2.291E-13

      iter #   9 total cpu time :   148.9 secs   av.it.:  12.4
      thresh= 4.787E-08 alpha_mix =  0.500 |ddv_scf|^2 =  1.267E-14

      iter #  10 total cpu time :   149.6 secs   av.it.:  12.4
      thresh= 1.125E-08 alpha_mix =  0.500 |ddv_scf|^2 =  5.854E-16

      iter #  11 total cpu time :   150.3 secs   av.it.:  12.6
      thresh= 2.420E-09 alpha_mix =  0.500 |ddv_scf|^2 =  3.211E-17

      iter #  12 total cpu time :   151.1 secs   av.it.:  12.7
      thresh= 5.667E-10 alpha_mix =  0.500 |ddv_scf|^2 =  4.835E-18

      iter #  13 total cpu time :   151.8 secs   av.it.:  12.8
      thresh= 2.199E-10 alpha_mix =  0.500 |ddv_scf|^2 =  1.847E-18

      iter #  14 total cpu time :   152.5 secs   av.it.:  11.9
      thresh= 1.359E-10 alpha_mix =  0.500 |ddv_scf|^2 =  3.269E-19

     End of self-consistent calculation

     Convergence has been achieved 


     Representation #   7 mode #   7

     Self-consistent Calculation

      iter #   1 total cpu time :   153.1 secs   av.it.:   6.6
      thresh= 1.000E-02 alpha_mix =  0.500 |ddv_scf|^2 =  6.555E-06

      iter #   2 total cpu time :   153.8 secs   av.it.:  11.6
      thresh= 2.560E-04 alpha_mix =  0.500 |ddv_scf|^2 =  6.065E-06

      iter #   3 total cpu time :   154.5 secs   av.it.:  10.7
      thresh= 2.463E-04 alpha_mix =  0.500 |ddv_scf|^2 =  3.147E-09

      iter #   4 total cpu time :   155.3 secs   av.it.:  12.2
      thresh= 5.610E-06 alpha_mix =  0.500 |ddv_scf|^2 =  6.552E-10

      iter #   5 total cpu time :   156.0 secs   av.it.:  12.3
      thresh= 2.560E-06 alpha_mix =  0.500 |ddv_scf|^2 =  1.075E-10

      iter #   6 total cpu time :   156.7 secs   av.it.:  12.2
      thresh= 1.037E-06 alpha_mix =  0.500 |ddv_scf|^2 =  4.451E-12

      iter #   7 total cpu time :   157.5 secs   av.it.:  12.4
      thresh= 2.110E-07 alpha_mix =  0.500 |ddv_scf|^2 =  1.684E-12

      iter #   8 total cpu time :   158.2 secs   av.it.:  11.8
      thresh= 1.298E-07 alpha_mix =  0.500 |ddv_scf|^2 =  6.911E-14

      iter #   9 total cpu time :   158.9 secs   av.it.:  11.1
      thresh= 2.629E-08 alpha_mix =  0.500 |ddv_scf|^2 =  9.937E-15

      iter #  10 total cpu time :   159.6 secs   av.it.:  11.9
      thresh= 9.968E-09 alpha_mix =  0.500 |ddv_scf|^2 =  1.149E-15

      iter #  11 total cpu time :   160.3 secs   av.it.:  11.8
      thresh= 3.389E-09 alpha_mix =  0.500 |ddv_scf|^2 =  2.502E-16

      iter #  12 total cpu time :   161.0 secs   av.it.:  11.7
      thresh= 1.582E-09 alpha_mix =  0.500 |ddv_scf|^2 =  2.074E-17

      iter #  13 total cpu time :   161.7 secs   av.it.:  12.3
      thresh= 4.554E-10 alpha_mix =  0.500 |ddv_scf|^2 =  4.253E-18

      iter #  14 total cpu time :   162.5 secs   av.it.:  11.9
      thresh= 2.062E-10 alpha_mix =  0.500 |ddv_scf|^2 =  3.062E-19

     End of self-consistent calculation

     Convergence has been achieved 


     Representation #   8 mode #   8

     Self-consistent Calculation

      iter #   1 total cpu time :   163.1 secs   av.it.:   6.6
      thresh= 1.000E-02 alpha_mix =  0.500 |ddv_scf|^2 =  6.551E-06

      iter #   2 total cpu time :   163.8 secs   av.it.:  11.6
      thresh= 2.559E-04 alpha_mix =  0.500 |ddv_scf|^2 =  6.071E-06

      iter #   3 total cpu time :   164.5 secs   av.it.:  10.8
      thresh= 2.464E-04 alpha_mix =  0.500 |ddv_scf|^2 =  3.129E-09

      iter #   4 total cpu time :   165.2 secs   av.it.:  12.2
      thresh= 5.594E-06 alpha_mix =  0.500 |ddv_scf|^2 =  6.467E-10

      iter #   5 total cpu time :   165.9 secs   av.it.:  12.3
      thresh= 2.543E-06 alpha_mix =  0.500 |ddv_scf|^2 =  1.061E-10

      iter #   6 total cpu time :   166.6 secs   av.it.:  12.2
      thresh= 1.030E-06 alpha_mix =  0.500 |ddv_scf|^2 =  4.256E-12

      iter #   7 total cpu time :   167.4 secs   av.it.:  12.5
      thresh= 2.063E-07 alpha_mix =  0.500 |ddv_scf|^2 =  1.698E-12

      iter #   8 total cpu time :   168.1 secs   av.it.:  11.8
      thresh= 1.303E-07 alpha_mix =  0.500 |ddv_scf|^2 =  7.371E-14

      iter #   9 total cpu time :   168.7 secs   av.it.:  11.2
      thresh= 2.715E-08 alpha_mix =  0.500 |ddv_scf|^2 =  1.023E-14

      iter #  10 total cpu time :   169.6 secs   av.it.:  11.9
      thresh= 1.012E-08 alpha_mix =  0.500 |ddv_scf|^2 =  1.431E-15

      iter #  11 total cpu time :   170.3 secs   av.it.:  11.6
      thresh= 3.783E-09 alpha_mix =  0.500 |ddv_scf|^2 =  2.532E-16

      iter #  12 total cpu time :   171.0 secs   av.it.:  11.8
      thresh= 1.591E-09 alpha_mix =  0.500 |ddv_scf|^2 =  2.257E-17

      iter #  13 total cpu time :   171.7 secs   av.it.:  12.3
      thresh= 4.751E-10 alpha_mix =  0.500 |ddv_scf|^2 =  3.760E-18

      iter #  14 total cpu time :   172.4 secs   av.it.:  12.0
      thresh= 1.939E-10 alpha_mix =  0.500 |ddv_scf|^2 =  3.807E-19

     End of self-consistent calculation

     Convergence has been achieved 


     Representation #   9 mode #   9

     Self-consistent Calculation

      iter #   1 total cpu time :   173.0 secs   av.it.:   5.2
      thresh= 1.000E-02 alpha_mix =  0.500 |ddv_scf|^2 =  1.309E-08

      iter #   2 total cpu time :   173.7 secs   av.it.:  11.6
      thresh= 1.144E-05 alpha_mix =  0.500 |ddv_scf|^2 =  2.432E-09

      iter #   3 total cpu time :   174.4 secs   av.it.:  11.7
      thresh= 4.932E-06 alpha_mix =  0.500 |ddv_scf|^2 =  1.132E-10

      iter #   4 total cpu time :   175.1 secs   av.it.:  11.8
      thresh= 1.064E-06 alpha_mix =  0.500 |ddv_scf|^2 =  2.632E-12

      iter #   5 total cpu time :   175.8 secs   av.it.:  11.5
      thresh= 1.622E-07 alpha_mix =  0.500 |ddv_scf|^2 =  1.173E-13

      iter #   6 total cpu time :   176.6 secs   av.it.:  12.0
      thresh= 3.424E-08 alpha_mix =  0.500 |ddv_scf|^2 =  6.856E-16

      iter #   7 total cpu time :   182.0 secs   av.it.:  12.7
      thresh= 2.618E-09 alpha_mix =  0.500 |ddv_scf|^2 =  3.743E-17

      iter #   8 total cpu time :   188.3 secs   av.it.:  12.3
      thresh= 6.118E-10 alpha_mix =  0.500 |ddv_scf|^2 =  5.314E-18

      iter #   9 total cpu time :   189.1 secs   av.it.:  12.4
      thresh= 2.305E-10 alpha_mix =  0.500 |ddv_scf|^2 =  1.357E-19

     End of self-consistent calculation

     Convergence has been achieved 


     Representation #  10 mode #  10

     Self-consistent Calculation

      iter #   1 total cpu time :   189.7 secs   av.it.:   7.2
      thresh= 1.000E-02 alpha_mix =  0.500 |ddv_scf|^2 =  7.769E-07

      iter #   2 total cpu time :   190.5 secs   av.it.:  12.2
      thresh= 8.814E-05 alpha_mix =  0.500 |ddv_scf|^2 =  3.006E-08

      iter #   3 total cpu time :   191.2 secs   av.it.:  12.4
      thresh= 1.734E-05 alpha_mix =  0.500 |ddv_scf|^2 =  9.900E-11

      iter #   4 total cpu time :   192.0 secs   av.it.:  12.7
      thresh= 9.950E-07 alpha_mix =  0.500 |ddv_scf|^2 =  4.497E-12

      iter #   5 total cpu time :   192.7 secs   av.it.:  12.7
      thresh= 2.121E-07 alpha_mix =  0.500 |ddv_scf|^2 =  8.839E-14

      iter #   6 total cpu time :   193.4 secs   av.it.:  11.9
      thresh= 2.973E-08 alpha_mix =  0.500 |ddv_scf|^2 =  9.716E-15

      iter #   7 total cpu time :   194.2 secs   av.it.:  12.5
      thresh= 9.857E-09 alpha_mix =  0.500 |ddv_scf|^2 =  1.428E-16

      iter #   8 total cpu time :   194.9 secs   av.it.:  12.1
      thresh= 1.195E-09 alpha_mix =  0.500 |ddv_scf|^2 =  6.468E-18

      iter #   9 total cpu time :   195.7 secs   av.it.:  12.4
      thresh= 2.543E-10 alpha_mix =  0.500 |ddv_scf|^2 =  3.893E-19

     End of self-consistent calculation

     Convergence has been achieved 


     Representation #  11 mode #  11

     Self-consistent Calculation

      iter #   1 total cpu time :   196.3 secs   av.it.:   7.2
      thresh= 1.000E-02 alpha_mix =  0.500 |ddv_scf|^2 =  7.769E-07

      iter #   2 total cpu time :   197.0 secs   av.it.:  12.2
      thresh= 8.814E-05 alpha_mix =  0.500 |ddv_scf|^2 =  3.006E-08

      iter #   3 total cpu time :   197.8 secs   av.it.:  12.4
      thresh= 1.734E-05 alpha_mix =  0.500 |ddv_scf|^2 =  9.900E-11

      iter #   4 total cpu time :   198.5 secs   av.it.:  12.7
      thresh= 9.950E-07 alpha_mix =  0.500 |ddv_scf|^2 =  4.497E-12

      iter #   5 total cpu time :   199.3 secs   av.it.:  12.7
      thresh= 2.121E-07 alpha_mix =  0.500 |ddv_scf|^2 =  8.840E-14

      iter #   6 total cpu time :   200.0 secs   av.it.:  11.9
      thresh= 2.973E-08 alpha_mix =  0.500 |ddv_scf|^2 =  9.718E-15

      iter #   7 total cpu time :   200.8 secs   av.it.:  12.5
      thresh= 9.858E-09 alpha_mix =  0.500 |ddv_scf|^2 =  1.428E-16

[...]
      thresh= 3.938E-05 alpha_mix =  0.500 |ddv_scf|^2 =  3.357E-09

      iter #   4 total cpu time :   588.4 secs   av.it.:  12.3
      thresh= 5.794E-06 alpha_mix =  0.500 |ddv_scf|^2 =  2.370E-10

      iter #   5 total cpu time :   589.1 secs   av.it.:  12.2
      thresh= 1.539E-06 alpha_mix =  0.500 |ddv_scf|^2 =  1.251E-11

      iter #   6 total cpu time :   589.8 secs   av.it.:  12.0
      thresh= 3.537E-07 alpha_mix =  0.500 |ddv_scf|^2 =  1.128E-12

      iter #   7 total cpu time :   590.6 secs   av.it.:  12.0
      thresh= 1.062E-07 alpha_mix =  0.500 |ddv_scf|^2 =  6.418E-14

      iter #   8 total cpu time :   591.4 secs   av.it.:  11.5
      thresh= 2.533E-08 alpha_mix =  0.500 |ddv_scf|^2 =  3.026E-15

      iter #   9 total cpu time :   592.1 secs   av.it.:  12.0
      thresh= 5.501E-09 alpha_mix =  0.500 |ddv_scf|^2 =  8.958E-17

      iter #  10 total cpu time :   592.9 secs   av.it.:  12.5
      thresh= 9.465E-10 alpha_mix =  0.500 |ddv_scf|^2 =  4.031E-18

      iter #  11 total cpu time :   593.6 secs   av.it.:  12.6
      thresh= 2.008E-10 alpha_mix =  0.500 |ddv_scf|^2 =  1.169E-18

      iter #  12 total cpu time :   594.3 secs   av.it.:  12.5
      thresh= 1.081E-10 alpha_mix =  0.500 |ddv_scf|^2 =  1.429E-19

     End of self-consistent calculation

     Convergence has been achieved 


     Representation #   7 mode #   7

     Self-consistent Calculation

      iter #   1 total cpu time :   595.0 secs   av.it.:   7.8
      thresh= 1.000E-02 alpha_mix =  0.500 |ddv_scf|^2 =  2.784E-06

      iter #   2 total cpu time :   595.7 secs   av.it.:  12.4
      thresh= 1.669E-04 alpha_mix =  0.500 |ddv_scf|^2 =  1.382E-07

      iter #   3 total cpu time :   596.5 secs   av.it.:  12.5
      thresh= 3.717E-05 alpha_mix =  0.500 |ddv_scf|^2 =  1.405E-08

      iter #   4 total cpu time :   597.3 secs   av.it.:  12.7
      thresh= 1.185E-05 alpha_mix =  0.500 |ddv_scf|^2 =  1.919E-09

      iter #   5 total cpu time :   598.0 secs   av.it.:  12.4
      thresh= 4.381E-06 alpha_mix =  0.500 |ddv_scf|^2 =  4.859E-11

      iter #   6 total cpu time :   598.8 secs   av.it.:  12.9
      thresh= 6.971E-07 alpha_mix =  0.500 |ddv_scf|^2 =  9.345E-13

      iter #   7 total cpu time :   599.5 secs   av.it.:  12.4
      thresh= 9.667E-08 alpha_mix =  0.500 |ddv_scf|^2 =  1.899E-13

      iter #   8 total cpu time :   600.2 secs   av.it.:  12.8
      thresh= 4.358E-08 alpha_mix =  0.500 |ddv_scf|^2 =  2.793E-15

      iter #   9 total cpu time :   601.0 secs   av.it.:  12.6
      thresh= 5.285E-09 alpha_mix =  0.500 |ddv_scf|^2 =  1.629E-16

      iter #  10 total cpu time :   601.8 secs   av.it.:  12.7
      thresh= 1.276E-09 alpha_mix =  0.500 |ddv_scf|^2 =  1.937E-17

      iter #  11 total cpu time :   602.5 secs   av.it.:  13.3
      thresh= 4.401E-10 alpha_mix =  0.500 |ddv_scf|^2 =  2.948E-18

      iter #  12 total cpu time :   603.3 secs   av.it.:  12.4
      thresh= 1.717E-10 alpha_mix =  0.500 |ddv_scf|^2 =  4.164E-19

     End of self-consistent calculation

     Convergence has been achieved 


     Representation #   8 mode #   8

     Self-consistent Calculation

      iter #   1 total cpu time :   603.9 secs   av.it.:   6.2
      thresh= 1.000E-02 alpha_mix =  0.500 |ddv_scf|^2 =  3.667E-07

      iter #   2 total cpu time :   604.6 secs   av.it.:  12.7
      thresh= 6.055E-05 alpha_mix =  0.500 |ddv_scf|^2 =  1.197E-07

      iter #   3 total cpu time :   605.3 secs   av.it.:  12.4
      thresh= 3.460E-05 alpha_mix =  0.500 |ddv_scf|^2 =  3.684E-09

      iter #   4 total cpu time :   606.1 secs   av.it.:  12.3
      thresh= 6.070E-06 alpha_mix =  0.500 |ddv_scf|^2 =  2.740E-10

      iter #   5 total cpu time :   606.8 secs   av.it.:  12.1
      thresh= 1.655E-06 alpha_mix =  0.500 |ddv_scf|^2 =  1.531E-11

      iter #   6 total cpu time :   607.5 secs   av.it.:  11.9
      thresh= 3.913E-07 alpha_mix =  0.500 |ddv_scf|^2 =  9.463E-13

      iter #   7 total cpu time :   608.2 secs   av.it.:  11.8
      thresh= 9.728E-08 alpha_mix =  0.500 |ddv_scf|^2 =  7.305E-14

      iter #   8 total cpu time :   608.9 secs   av.it.:  11.5
      thresh= 2.703E-08 alpha_mix =  0.500 |ddv_scf|^2 =  2.437E-15

      iter #   9 total cpu time :   609.6 secs   av.it.:  12.1
      thresh= 4.937E-09 alpha_mix =  0.500 |ddv_scf|^2 =  7.273E-17

      iter #  10 total cpu time :   610.4 secs   av.it.:  12.5
      thresh= 8.528E-10 alpha_mix =  0.500 |ddv_scf|^2 =  5.553E-18

      iter #  11 total cpu time :   611.1 secs   av.it.:  12.6
      thresh= 2.356E-10 alpha_mix =  0.500 |ddv_scf|^2 =  1.444E-18

      iter #  12 total cpu time :   611.9 secs   av.it.:  12.4
      thresh= 1.202E-10 alpha_mix =  0.500 |ddv_scf|^2 =  1.316E-19

     End of self-consistent calculation

     Convergence has been achieved 


     Representation #   9 mode #   9

     Self-consistent Calculation

      iter #   1 total cpu time :   612.6 secs   av.it.:   7.7
      thresh= 1.000E-02 alpha_mix =  0.500 |ddv_scf|^2 =  2.213E-06

      iter #   2 total cpu time :   613.4 secs   av.it.:  12.4
      thresh= 1.488E-04 alpha_mix =  0.500 |ddv_scf|^2 =  1.601E-07

      iter #   3 total cpu time :   614.1 secs   av.it.:  12.4
      thresh= 4.002E-05 alpha_mix =  0.500 |ddv_scf|^2 =  1.288E-08

      iter #   4 total cpu time :   614.9 secs   av.it.:  12.9
      thresh= 1.135E-05 alpha_mix =  0.500 |ddv_scf|^2 =  2.591E-09

      iter #   5 total cpu time :   615.6 secs   av.it.:  12.4
      thresh= 5.091E-06 alpha_mix =  0.500 |ddv_scf|^2 =  2.181E-11

      iter #   6 total cpu time :   616.4 secs   av.it.:  12.6
      thresh= 4.670E-07 alpha_mix =  0.500 |ddv_scf|^2 =  1.387E-12

      iter #   7 total cpu time :   617.1 secs   av.it.:  12.7
      thresh= 1.178E-07 alpha_mix =  0.500 |ddv_scf|^2 =  1.271E-13

      iter #   8 total cpu time :   617.9 secs   av.it.:  12.6
      thresh= 3.566E-08 alpha_mix =  0.500 |ddv_scf|^2 =  4.477E-15

      iter #   9 total cpu time :   618.6 secs   av.it.:  12.5
      thresh= 6.691E-09 alpha_mix =  0.500 |ddv_scf|^2 =  2.336E-16

      iter #  10 total cpu time :   619.3 secs   av.it.:  12.7
      thresh= 1.529E-09 alpha_mix =  0.500 |ddv_scf|^2 =  2.540E-17

      iter #  11 total cpu time :   620.1 secs   av.it.:  12.9
      thresh= 5.040E-10 alpha_mix =  0.500 |ddv_scf|^2 =  4.122E-18

      iter #  12 total cpu time :   620.8 secs   av.it.:  12.3
      thresh= 2.030E-10 alpha_mix =  0.500 |ddv_scf|^2 =  3.799E-19

     End of self-consistent calculation

     Convergence has been achieved 


     Representation #  10 mode #  10

     Self-consistent Calculation

      iter #   1 total cpu time :   621.5 secs   av.it.:   6.0
      thresh= 1.000E-02 alpha_mix =  0.500 |ddv_scf|^2 =  2.167E-07

      iter #   2 total cpu time :   622.2 secs   av.it.:  12.7
      thresh= 4.655E-05 alpha_mix =  0.500 |ddv_scf|^2 =  7.177E-08

      iter #   3 total cpu time :   622.9 secs   av.it.:  12.4
      thresh= 2.679E-05 alpha_mix =  0.500 |ddv_scf|^2 =  2.536E-09

      iter #   4 total cpu time :   623.7 secs   av.it.:  12.4
      thresh= 5.036E-06 alpha_mix =  0.500 |ddv_scf|^2 =  2.278E-10

      iter #   5 total cpu time :   624.4 secs   av.it.:  12.3
      thresh= 1.509E-06 alpha_mix =  0.500 |ddv_scf|^2 =  7.620E-12

      iter #   6 total cpu time :   625.1 secs   av.it.:  12.1
      thresh= 2.760E-07 alpha_mix =  0.500 |ddv_scf|^2 =  6.069E-13

      iter #   7 total cpu time :   625.8 secs   av.it.:  11.9
      thresh= 7.791E-08 alpha_mix =  0.500 |ddv_scf|^2 =  4.192E-14

      iter #   8 total cpu time :   626.7 secs   av.it.:  11.9
      thresh= 2.048E-08 alpha_mix =  0.500 |ddv_scf|^2 =  1.394E-15

      iter #   9 total cpu time :   627.4 secs   av.it.:  12.0
      thresh= 3.733E-09 alpha_mix =  0.500 |ddv_scf|^2 =  7.412E-17

      iter #  10 total cpu time :   628.1 secs   av.it.:  12.7
      thresh= 8.609E-10 alpha_mix =  0.500 |ddv_scf|^2 =  7.452E-18

      iter #  11 total cpu time :   628.9 secs   av.it.:  12.4
      thresh= 2.730E-10 alpha_mix =  0.500 |ddv_scf|^2 =  7.240E-19

     End of self-consistent calculation

     Convergence has been achieved 


     Representation #  11 mode #  11

     Self-consistent Calculation

      iter #   1 total cpu time :   629.5 secs   av.it.:   7.9
      thresh= 1.000E-02 alpha_mix =  0.500 |ddv_scf|^2 =  6.233E-06

      iter #   2 total cpu time :   630.2 secs   av.it.:  12.3
      thresh= 2.497E-04 alpha_mix =  0.500 |ddv_scf|^2 =  5.456E-07

      iter #   3 total cpu time :   631.0 secs   av.it.:  12.2
      thresh= 7.387E-05 alpha_mix =  0.500 |ddv_scf|^2 =  1.761E-08

      iter #   4 total cpu time :   631.7 secs   av.it.:  12.9
      thresh= 1.327E-05 alpha_mix =  0.500 |ddv_scf|^2 =  3.470E-09

      iter #   5 total cpu time :   632.5 secs   av.it.:  12.4
      thresh= 5.891E-06 alpha_mix =  0.500 |ddv_scf|^2 =  2.423E-11

      iter #   6 total cpu time :   633.2 secs   av.it.:  12.7
      thresh= 4.922E-07 alpha_mix =  0.500 |ddv_scf|^2 =  1.584E-12

      iter #   7 total cpu time :   633.9 secs   av.it.:  12.5
      thresh= 1.259E-07 alpha_mix =  0.500 |ddv_scf|^2 =  1.508E-13

      iter #   8 total cpu time :   634.7 secs   av.it.:  12.6
      thresh= 3.883E-08 alpha_mix =  0.500 |ddv_scf|^2 =  6.169E-15

      iter #   9 total cpu time :   635.4 secs   av.it.:  12.4
      thresh= 7.854E-09 alpha_mix =  0.500 |ddv_scf|^2 =  2.095E-16

      iter #  10 total cpu time :   636.1 secs   av.it.:  12.9
      thresh= 1.447E-09 alpha_mix =  0.500 |ddv_scf|^2 =  7.197E-17

      iter #  11 total cpu time :   636.9 secs   av.it.:  12.9
      thresh= 8.484E-10 alpha_mix =  0.500 |ddv_scf|^2 =  1.106E-17

      iter #  12 total cpu time :   637.7 secs   av.it.:  12.6
      thresh= 3.326E-10 alpha_mix =  0.500 |ddv_scf|^2 =  1.810E-18

      iter #  13 total cpu time :   638.4 secs   av.it.:  12.2
      thresh= 1.345E-10 alpha_mix =  0.500 |ddv_scf|^2 =  2.123E-19

     End of self-consistent calculation

     Convergence has been achieved 


     Representation #  12 mode #  12

     Self-consistent Calculation

      iter #   1 total cpu time :   639.0 secs   av.it.:   6.0
      thresh= 1.000E-02 alpha_mix =  0.500 |ddv_scf|^2 =  1.837E-07

      iter #   2 total cpu time :   639.8 secs   av.it.:  12.9
      thresh= 4.286E-05 alpha_mix =  0.500 |ddv_scf|^2 =  7.083E-08

      iter #   3 total cpu time :   640.5 secs   av.it.:  12.5
      thresh= 2.661E-05 alpha_mix =  0.500 |ddv_scf|^2 =  2.700E-09

      iter #   4 total cpu time :   641.2 secs   av.it.:  11.9
      thresh= 5.196E-06 alpha_mix =  0.500 |ddv_scf|^2 =  3.103E-10

      iter #   5 total cpu time :   642.0 secs   av.it.:  12.0
      thresh= 1.762E-06 alpha_mix =  0.500 |ddv_scf|^2 =  1.022E-11

      iter #   6 total cpu time :   642.7 secs   av.it.:  11.9
      thresh= 3.196E-07 alpha_mix =  0.500 |ddv_scf|^2 =  9.063E-13

      iter #   7 total cpu time :   643.4 secs   av.it.:  11.9
      thresh= 9.520E-08 alpha_mix =  0.500 |ddv_scf|^2 =  4.059E-14

      iter #   8 total cpu time :   644.1 secs   av.it.:  11.4
      thresh= 2.015E-08 alpha_mix =  0.500 |ddv_scf|^2 =  2.153E-15

      iter #   9 total cpu time :   644.8 secs   av.it.:  12.2
      thresh= 4.640E-09 alpha_mix =  0.500 |ddv_scf|^2 =  2.183E-17

      iter #  10 total cpu time :   645.6 secs   av.it.:  12.4
      thresh= 4.672E-10 alpha_mix =  0.500 |ddv_scf|^2 =  2.764E-18

      iter #  11 total cpu time :   646.3 secs   av.it.:  12.7
      thresh= 1.662E-10 alpha_mix =  0.500 |ddv_scf|^2 =  1.062E-18

      iter #  12 total cpu time :   647.0 secs   av.it.:  12.5
      thresh= 1.030E-10 alpha_mix =  0.500 |ddv_scf|^2 =  7.569E-20

     End of self-consistent calculation

     Convergence has been achieved 
 
     Number of q in the star =    6
     List of q in the star:
          1   0.433012701   0.250000001  -0.311861657
          2  -0.433012701  -0.250000001  -0.311861657
          3   0.000000000  -0.500000003  -0.311861657
          4  -0.433012701   0.250000001  -0.311861657
          5   0.433012701  -0.250000001  -0.311861657
          6   0.000000000   0.500000003  -0.311861657

     Diagonalizing the dynamical matrix

     q = (    0.433012701   0.250000001  -0.311861657 ) 

 **************************************************************************
     freq (    1) =       7.559634 [THz] =     252.162248 [cm-1]
     freq (    2) =       7.559634 [THz] =     252.162248 [cm-1]
     freq (    3) =      10.930430 [THz] =     364.599893 [cm-1]
     freq (    4) =      10.930430 [THz] =     364.599893 [cm-1]
     freq (    5) =      15.462637 [THz] =     515.778042 [cm-1]
     freq (    6) =      15.462637 [THz] =     515.778042 [cm-1]
     freq (    7) =      18.644363 [THz] =     621.909001 [cm-1]
     freq (    8) =      18.644363 [THz] =     621.909001 [cm-1]
     freq (    9) =      20.263238 [THz] =     675.908869 [cm-1]
     freq (   10) =      20.263238 [THz] =     675.908869 [cm-1]
     freq (   11) =      21.761542 [THz] =     725.886903 [cm-1]
     freq (   12) =      21.761542 [THz] =     725.886903 [cm-1]
 **************************************************************************

     Mode symmetry, C_s (m)     point group:

     freq (   1-   1) =        252.2  [cm-1]   --> A'                 
     freq (   2-   2) =        252.2  [cm-1]   --> A''                
     freq (   3-   3) =        364.6  [cm-1]   --> A'                 
     freq (   4-   4) =        364.6  [cm-1]   --> A''                
     freq (   5-   5) =        515.8  [cm-1]   --> A'                 
     freq (   6-   6) =        515.8  [cm-1]   --> A''                
     freq (   7-   7) =        621.9  [cm-1]   --> A'                 
     freq (   8-   8) =        621.9  [cm-1]   --> A''                
     freq (   9-   9) =        675.9  [cm-1]   --> A'                 
     freq (  10-  10) =        675.9  [cm-1]   --> A''                
     freq (  11-  11) =        725.9  [cm-1]   --> A'                 
     freq (  12-  12) =        725.9  [cm-1]   --> A''                
 
     init_run     :      1.44s CPU      1.64s WALL (       7 calls)
     electrons    :     14.67s CPU     16.00s WALL (       7 calls)

     Called by init_run:
     wfcinit      :      0.00s CPU      0.01s WALL (       7 calls)
     potinit      :      0.28s CPU      0.32s WALL (       7 calls)
     hinit0       :      0.80s CPU      0.82s WALL (       7 calls)

     Called by electrons:
     c_bands      :     14.67s CPU     15.96s WALL (       7 calls)
     v_of_rho     :      0.05s CPU      0.05s WALL (       8 calls)
     newd         :      0.04s CPU      0.06s WALL (       8 calls)
     PAW_pot      :      0.25s CPU      0.28s WALL (       8 calls)

     Called by c_bands:
     init_us_2    :      2.08s CPU      2.29s WALL (   27788 calls)
     cegterg      :     12.20s CPU     12.65s WALL (     368 calls)

     Called by *egterg:
     cdiaghg      :      6.44s CPU      6.62s WALL (    5479 calls)
     h_psi        :    256.25s CPU    272.75s WALL (  391200 calls)
     s_psi        :     14.91s CPU     15.91s WALL (  802877 calls)
     g_psi        :      0.04s CPU      0.04s WALL (    5111 calls)

     Called by h_psi:
     h_psi:calbec :     18.14s CPU     19.30s WALL (  391200 calls)
     vloc_psi     :    226.98s CPU    241.63s WALL (  391200 calls)
     add_vuspsi   :      7.75s CPU      8.29s WALL (  391200 calls)

     General routines
     calbec       :     31.39s CPU     33.51s WALL (  847985 calls)
     fft          :      4.42s CPU      4.57s WALL (   19559 calls)
     ffts         :      0.34s CPU      0.37s WALL (    5646 calls)
     fftw         :    238.20s CPU    255.03s WALL ( 6002012 calls)
     interpolate  :      0.78s CPU      0.83s WALL (    2214 calls)
     davcio       :      2.88s CPU      5.21s WALL (  140601 calls)
 
     Parallel routines
 
     PHONON       :  10m 0.21s CPU  10m47.15s WALL

     INITIALIZATION: 
     phq_setup    :      0.14s CPU      0.28s WALL (       8 calls)
     phq_init     :     10.44s CPU     10.71s WALL (       8 calls)
 
     phq_init     :     10.44s CPU     10.71s WALL (       8 calls)
     set_drhoc    :      1.73s CPU      1.74s WALL (      24 calls)
     init_vloc    :      0.20s CPU      0.20s WALL (       8 calls)
     init_us_1    :      0.38s CPU      0.40s WALL (       8 calls)
     newd         :      0.04s CPU      0.06s WALL (       8 calls)
     dvanqq       :      3.00s CPU      3.02s WALL (       8 calls)
     drho         :      4.71s CPU      4.88s WALL (       8 calls)
 
     DYNAMICAL MATRIX:
     dynmat0      :      1.68s CPU      1.74s WALL (       8 calls)
     phqscf       :    564.22s CPU    607.36s WALL (       8 calls)
     dynmatrix    :      0.01s CPU      0.09s WALL (       8 calls)
 
     phqscf       :    564.22s CPU    607.36s WALL (       8 calls)
     solve_linter :    563.06s CPU    604.99s WALL (      78 calls)
     drhodv       :      0.78s CPU      0.83s WALL (      78 calls)
 
     dynmat0      :      1.68s CPU      1.74s WALL (       8 calls)
     dynmat_us    :      0.26s CPU      0.27s WALL (       8 calls)
     d2ionq       :      0.03s CPU      0.03s WALL (       8 calls)
     dynmatcc     :      1.27s CPU      1.28s WALL (       8 calls)
 
     dynmat_us    :      0.26s CPU      0.27s WALL (       8 calls)
     addusdynmat  :      0.00s CPU      0.00s WALL (       8 calls)
 
     phqscf       :    564.22s CPU    607.36s WALL (       8 calls)
     solve_linter :    563.06s CPU    604.99s WALL (      78 calls)
 
     solve_linter :    563.06s CPU    604.99s WALL (      78 calls)
     dvqpsi_us    :      3.63s CPU      3.83s WALL (    2400 calls)
     ortho        :      2.84s CPU      3.11s WALL (   26300 calls)
     cgsolve      :    306.26s CPU    326.04s WALL (   26300 calls)
     incdrhoscf   :     21.49s CPU     24.12s WALL (   26300 calls)
     addusddens   :     31.12s CPU     31.36s WALL (     943 calls)
     vpsifft      :     17.51s CPU     19.23s WALL (   23756 calls)
     dv_of_drho   :      5.60s CPU      5.76s WALL (    1053 calls)
     mix_pot      :      1.70s CPU      7.20s WALL (     874 calls)
     psymdvscf    :     30.65s CPU     31.03s WALL (     865 calls)
     newdq        :     31.33s CPU     31.67s WALL (     874 calls)
     adddvscf     :      1.47s CPU      1.62s WALL (   23948 calls)
     drhodvus     :      0.08s CPU      0.14s WALL (      78 calls)
 
     dvqpsi_us    :      3.63s CPU      3.83s WALL (    2400 calls)
     dvqpsi_us_on :      1.75s CPU      1.82s WALL (    2400 calls)
 
     cgsolve      :    306.26s CPU    326.04s WALL (   26300 calls)
     ch_psi       :    294.07s CPU    312.99s WALL (  385353 calls)
 
     ch_psi       :    294.07s CPU    312.99s WALL (  385353 calls)
     h_psi        :    256.25s CPU    272.75s WALL (  391200 calls)
     last         :     30.19s CPU     32.15s WALL (  385353 calls)
 
     h_psi        :    256.25s CPU    272.75s WALL (  391200 calls)
     add_vuspsi   :      7.75s CPU      8.29s WALL (  391200 calls)
 
     incdrhoscf   :     21.49s CPU     24.12s WALL (   26300 calls)
     addusdbec    :      1.62s CPU      1.79s WALL (   28604 calls)
 
     drhodvus     :      0.08s CPU      0.14s WALL (      78 calls)
 
      General routines
     calbec       :     31.39s CPU     33.51s WALL (  847985 calls)
     fft          :      4.42s CPU      4.57s WALL (   19559 calls)
     ffts         :      0.34s CPU      0.37s WALL (    5646 calls)
     fftw         :    238.20s CPU    255.03s WALL ( 6002012 calls)
     davcio       :      2.88s CPU      5.21s WALL (  140601 calls)
     write_rec    :      0.63s CPU      9.83s WALL (     952 calls)
 
 
     PHONON       :  10m 0.21s CPU  10m47.16s WALL

 
   This run was terminated on:  18:16:58  13May2023            

=------------------------------------------------------------------------------=
   JOB DONE.
=------------------------------------------------------------------------------=
