
     Program PWSCF v.6.8 starts on 13May2023 at 18: 6: 2 

     This program is part of the open-source Quantum ESPRESSO suite
     for quantum simulation of materials; please cite
         "P. Giannozzi et al., J. Phys.:Condens. Matter 21 395502 (2009);
         "P. Giannozzi et al., J. Phys.:Condens. Matter 29 465901 (2017);
         "P. Giannozzi et al., J. Chem. Phys. 152 154105 (2020);
          URL http://www.quantum-espresso.org", 
     in publications or presentations arising from this work. More details at
     http://www.quantum-espresso.org/quote

     Parallel version (MPI & OpenMP), running on      48 processor cores
     Number of MPI processes:                48
     Threads/MPI process:                     1

     MPI processes distributed on     1 nodes
     K-points division:     npool     =       4
     R & G space division:  proc/nbgrp/npool/nimage =      12
     365641 MiB available memory on the printing compute node when the environment starts
 
     Reading input from pw.scf.aln.in

     Current dimensions of program PWSCF are:
     Max number of different atomic species (ntypx) = 10
     Max number of k-points (npk) =  40000
     Max angular momentum in pseudopotentials (lmaxx) =  4
     file Al.pbe-n-kjpaw_psl.1.0.0.UPF: wavefunction(s)  3S 3P renormalized
     Message from routine setup:
     using ibrav=0 with symmetry is DISCOURAGED, use correct ibrav instead

     Subspace diagonalization in iterative solution of the eigenvalue problem:
     one sub-group per band group will be used
     scalapack distributed-memory algorithm (size of sub-group:  3*  3 procs)

 
     Parallelization info
     --------------------
     sticks:   dense  smooth     PW     G-vecs:    dense   smooth      PW
     Min         119      48     13                 5933     1506     239
     Max         120      49     14                 5941     1511     248
     Sum        1429     583    163                71209    18113    2923
 
     Using Slab Decomposition
 


     bravais-lattice index     =            0
     lattice parameter (alat)  =       5.9161  a.u.
     unit-cell volume          =     287.5046 (a.u.)^3
     number of atoms/cell      =            4
     number of atomic types    =            2
     number of electrons       =        16.00
     number of Kohn-Sham states=            8
     kinetic-energy cutoff     =      60.0000  Ry
     charge density cutoff     =     600.0000  Ry
     scf convergence threshold =      8.0E-10
     mixing beta               =       0.4000
     number of iterations used =            8  plain     mixing
     energy convergence thresh.=      1.0E-04
     force convergence thresh. =      1.0E-03
     Exchange-correlation= PBE
                           (   1   4   3   4   0   0   0)
     nstep                     =           50


     celldm(1)=   5.916099  celldm(2)=   0.000000  celldm(3)=   0.000000
     celldm(4)=   0.000000  celldm(5)=   0.000000  celldm(6)=   0.000000

     crystal axes: (cart. coord. in units of alat)
               a(1) = (   0.866025  -0.500000   0.000000 )  
               a(2) = (   0.000000   1.000000   0.000000 )  
               a(3) = (   0.000000   0.000000   1.603275 )  

     reciprocal axes: (cart. coord. in units 2 pi/alat)
               b(1) = (  1.154701  0.000000  0.000000 )  
               b(2) = (  0.577350  1.000000  0.000000 )  
               b(3) = (  0.000000  0.000000  0.623723 )  


     PseudoPot. # 1 for Al read from file:
     ./pseudo/Al.pbe-n-kjpaw_psl.1.0.0.UPF
     MD5 check sum: cfc449ca30b5f3223ec38ddd88ac046d
     Pseudo is Projector augmented-wave + core cor, Zval =  3.0
     Generated using "atomic" code by A. Dal Corso  v.5.1
     Shape of augmentation charge: PSQ
     Using radial grid of 1135 points,  6 beta functions with: 
                l(1) =   0
                l(2) =   0
                l(3) =   1
                l(4) =   1
                l(5) =   2
                l(6) =   2
     Q(r) pseudized with 0 coefficients 


     PseudoPot. # 2 for N  read from file:
     ./pseudo/N.pbe-n-radius_5.UPF
     MD5 check sum: 16739722b17309cd8fe442a2ace49922
     Pseudo is Ultrasoft + core correction, Zval =  5.0
     Generated using "atomic" code by A. Dal Corso  v.5.1
     Using radial grid of 1085 points,  4 beta functions with: 
                l(1) =   0
                l(2) =   0
                l(3) =   1
                l(4) =   1
     Q(r) pseudized with 0 coefficients 


     atomic species   valence    mass     pseudopotential
        Al             3.00    26.98154     Al( 1.00)
        N              5.00    14.00670     N ( 1.00)

     12 Sym. Ops. (no inversion) found ( 6 have fractional translation)


                                    s                        frac. trans.

      isym =  1     identity                                     

 cryst.   s( 1) = (     1          0          0      )
                  (     0          1          0      )
                  (     0          0          1      )

 cart.    s( 1) = (  1.0000000  0.0000000  0.0000000 )
                  (  0.0000000  1.0000000  0.0000000 )
                  (  0.0000000  0.0000000  1.0000000 )


      isym =  2     180 deg rotation - cart. axis [0,0,1]        

 cryst.   s( 2) = (    -1          0          0      )    f =(  0.0000000 )
                  (     0         -1          0      )       ( -0.0000000 )
                  (     0          0          1      )       ( -0.5000000 )

 cart.    s( 2) = ( -1.0000000  0.0000000  0.0000000 )    f =(  0.0000000 )
                  (  0.0000000 -1.0000000  0.0000000 )       ( -0.0000000 )
                  (  0.0000000  0.0000000  1.0000000 )       ( -0.8016375 )


      isym =  3      60 deg rotation - cryst. axis [0,0,1]       

 cryst.   s( 3) = (     1          1          0      )    f =( -0.0000000 )
                  (    -1          0          0      )       ( -0.0000000 )
                  (     0          0          1      )       ( -0.5000000 )

 cart.    s( 3) = (  0.5000000 -0.8660254  0.0000000 )    f =( -0.0000000 )
                  (  0.8660254  0.5000000  0.0000000 )       ( -0.0000000 )
                  (  0.0000000  0.0000000  1.0000000 )       ( -0.8016375 )


      isym =  4      60 deg rotation - cryst. axis [0,0,-1]      

 cryst.   s( 4) = (     0         -1          0      )    f =( -0.0000000 )
                  (     1          1          0      )       ( -0.0000000 )
                  (     0          0          1      )       ( -0.5000000 )

 cart.    s( 4) = (  0.5000000  0.8660254  0.0000000 )    f =( -0.0000000 )
                  ( -0.8660254  0.5000000  0.0000000 )       ( -0.0000000 )
                  (  0.0000000  0.0000000  1.0000000 )       ( -0.8016375 )


      isym =  5     120 deg rotation - cryst. axis [0,0,1]       

 cryst.   s( 5) = (     0          1          0      )
                  (    -1         -1          0      )
                  (     0          0          1      )

 cart.    s( 5) = ( -0.5000000 -0.8660254  0.0000000 )
                  (  0.8660254 -0.5000000  0.0000000 )
                  (  0.0000000  0.0000000  1.0000000 )


      isym =  6     120 deg rotation - cryst. axis [0,0,-1]      

 cryst.   s( 6) = (    -1         -1          0      )
                  (     1          0          0      )
                  (     0          0          1      )

 cart.    s( 6) = ( -0.5000000  0.8660254  0.0000000 )
                  ( -0.8660254 -0.5000000  0.0000000 )
                  (  0.0000000  0.0000000  1.0000000 )


      isym =  7     inv. 180 deg rotation - cart. axis [0,1,0]   

 cryst.   s( 7) = (     1          1          0      )
                  (     0         -1          0      )
                  (     0          0          1      )

 cart.    s( 7) = (  1.0000000  0.0000000  0.0000000 )
                  (  0.0000000 -1.0000000  0.0000000 )
                  (  0.0000000  0.0000000  1.0000000 )


      isym =  8     inv. 180 deg rotation - cart. axis [1,0,0]   

 cryst.   s( 8) = (    -1         -1          0      )    f =(  0.0000000 )
                  (     0          1          0      )       ( -0.0000000 )
                  (     0          0          1      )       ( -0.5000000 )

 cart.    s( 8) = ( -1.0000000  0.0000000  0.0000000 )    f =(  0.0000000 )
                  (  0.0000000  1.0000000  0.0000000 )       ( -0.0000000 )
                  (  0.0000000  0.0000000  1.0000000 )       ( -0.8016375 )


      isym =  9     inv. 180 deg rotation - cryst. axis [1,-1,0] 

 cryst.   s( 9) = (    -1          0          0      )
                  (     1          1          0      )
                  (     0          0          1      )

 cart.    s( 9) = ( -0.5000000  0.8660254  0.0000000 )
                  (  0.8660254  0.5000000  0.0000000 )
                  (  0.0000000  0.0000000  1.0000000 )


      isym = 10     inv. 180 deg rotation - cryst. axis [2,1,0]  

 cryst.   s(10) = (     0         -1          0      )
                  (    -1          0          0      )
                  (     0          0          1      )

 cart.    s(10) = ( -0.5000000 -0.8660254  0.0000000 )
                  ( -0.8660254  0.5000000  0.0000000 )
                  (  0.0000000  0.0000000  1.0000000 )


      isym = 11     inv. 180 deg rotation - cryst. axis [0,1,0]  

 cryst.   s(11) = (     0          1          0      )    f =( -0.0000000 )
                  (     1          0          0      )       ( -0.0000000 )
                  (     0          0          1      )       ( -0.5000000 )

 cart.    s(11) = (  0.5000000  0.8660254  0.0000000 )    f =( -0.0000000 )
                  (  0.8660254 -0.5000000  0.0000000 )       ( -0.0000000 )
                  (  0.0000000  0.0000000  1.0000000 )       ( -0.8016375 )


      isym = 12     inv. 180 deg rotation - cryst. axis [1,1,0]  

 cryst.   s(12) = (     1          0          0      )    f =( -0.0000000 )
                  (    -1         -1          0      )       ( -0.0000000 )
                  (     0          0          1      )       ( -0.5000000 )

 cart.    s(12) = (  0.5000000 -0.8660254  0.0000000 )    f =( -0.0000000 )
                  ( -0.8660254 -0.5000000  0.0000000 )       ( -0.0000000 )
                  (  0.0000000  0.0000000  1.0000000 )       ( -0.8016375 )


   Cartesian axes

     site n.     atom                  positions (alat units)
         1           Al  tau(   1) = (   0.2886751   0.5000000  -0.0012027  )
         2           Al  tau(   2) = (   0.5773503   0.0000000   0.8004348  )
         3           N   tau(   3) = (   0.2886751   0.5000000   0.6104472  )
         4           N   tau(   4) = (   0.5773503   0.0000000   1.4120847  )

   Crystallographic axes

     site n.     atom                  positions (cryst. coord.)
         1           Al  tau(   1) = (  0.3333333  0.6666667 -0.0007502  )
         2           Al  tau(   2) = (  0.6666667  0.3333333  0.4992498  )
         3           N   tau(   3) = (  0.3333333  0.6666667  0.3807502  )
         4           N   tau(   4) = (  0.6666667  0.3333333  0.8807502  )

     number of k points=    30
                       cart. coord. in units 2pi/alat
        k(    1) = (   0.0000000   0.0000000   0.0000000), wk =   0.0078125
        k(    2) = (   0.0000000   0.0000000   0.1559308), wk =   0.0156250
        k(    3) = (   0.0000000   0.0000000  -0.3118617), wk =   0.0078125
        k(    4) = (   0.0721688   0.1250000   0.0000000), wk =   0.0468750
        k(    5) = (   0.0721688   0.1250000   0.1559308), wk =   0.0937500
        k(    6) = (   0.0721688   0.1250000  -0.3118617), wk =   0.0468750
        k(    7) = (   0.1443376   0.2500000   0.0000000), wk =   0.0468750
        k(    8) = (   0.1443376   0.2500000   0.1559308), wk =   0.0937500
        k(    9) = (   0.1443376   0.2500000  -0.3118617), wk =   0.0468750
        k(   10) = (   0.2165064   0.3750000   0.0000000), wk =   0.0468750
        k(   11) = (   0.2165064   0.3750000   0.1559308), wk =   0.0937500
        k(   12) = (   0.2165064   0.3750000  -0.3118617), wk =   0.0468750
        k(   13) = (  -0.2886751  -0.5000000   0.0000000), wk =   0.0234375
        k(   14) = (  -0.2886751  -0.5000000   0.1559308), wk =   0.0468750
        k(   15) = (  -0.2886751  -0.5000000  -0.3118617), wk =   0.0234375
        k(   16) = (   0.2165064   0.1250000   0.0000000), wk =   0.0468750
        k(   17) = (   0.2165064   0.1250000   0.1559308), wk =   0.0937500
        k(   18) = (   0.2165064   0.1250000  -0.3118617), wk =   0.0468750
        k(   19) = (   0.2886751   0.2500000   0.0000000), wk =   0.0937500
        k(   20) = (   0.2886751   0.2500000   0.1559308), wk =   0.1875000
        k(   21) = (   0.2886751   0.2500000  -0.3118617), wk =   0.0937500
        k(   22) = (   0.3608439   0.3750000   0.0000000), wk =   0.0937500
        k(   23) = (   0.3608439   0.3750000   0.1559308), wk =   0.1875000
        k(   24) = (   0.3608439   0.3750000  -0.3118617), wk =   0.0937500
        k(   25) = (   0.4330127   0.2500000   0.0000000), wk =   0.0468750
        k(   26) = (   0.4330127   0.2500000   0.1559308), wk =   0.0937500
        k(   27) = (   0.4330127   0.2500000  -0.3118617), wk =   0.0468750
        k(   28) = (   0.5051815   0.3750000   0.0000000), wk =   0.0468750
        k(   29) = (   0.5051815   0.3750000   0.1559308), wk =   0.0937500
        k(   30) = (   0.5051815   0.3750000  -0.3118617), wk =   0.0468750

                       cryst. coord.
        k(    1) = (   0.0000000   0.0000000   0.0000000), wk =   0.0078125
        k(    2) = (   0.0000000   0.0000000   0.2500000), wk =   0.0156250
        k(    3) = (   0.0000000   0.0000000  -0.5000000), wk =   0.0078125
        k(    4) = (   0.0000000   0.1250000   0.0000000), wk =   0.0468750
        k(    5) = (   0.0000000   0.1250000   0.2500000), wk =   0.0937500
        k(    6) = (   0.0000000   0.1250000  -0.5000000), wk =   0.0468750
        k(    7) = (   0.0000000   0.2500000   0.0000000), wk =   0.0468750
        k(    8) = (   0.0000000   0.2500000   0.2500000), wk =   0.0937500
        k(    9) = (   0.0000000   0.2500000  -0.5000000), wk =   0.0468750
        k(   10) = (   0.0000000   0.3750000   0.0000000), wk =   0.0468750
        k(   11) = (   0.0000000   0.3750000   0.2500000), wk =   0.0937500
        k(   12) = (   0.0000000   0.3750000  -0.5000000), wk =   0.0468750
        k(   13) = (  -0.0000000  -0.5000000   0.0000000), wk =   0.0234375
        k(   14) = (  -0.0000000  -0.5000000   0.2500000), wk =   0.0468750
        k(   15) = (  -0.0000000  -0.5000000  -0.5000000), wk =   0.0234375
        k(   16) = (   0.1250000   0.1250000   0.0000000), wk =   0.0468750
        k(   17) = (   0.1250000   0.1250000   0.2500000), wk =   0.0937500
        k(   18) = (   0.1250000   0.1250000  -0.5000000), wk =   0.0468750
        k(   19) = (   0.1250000   0.2500000   0.0000000), wk =   0.0937500
        k(   20) = (   0.1250000   0.2500000   0.2500000), wk =   0.1875000
        k(   21) = (   0.1250000   0.2500000  -0.5000000), wk =   0.0937500
        k(   22) = (   0.1250000   0.3750000   0.0000000), wk =   0.0937500
        k(   23) = (   0.1250000   0.3750000   0.2500000), wk =   0.1875000
        k(   24) = (   0.1250000   0.3750000  -0.5000000), wk =   0.0937500
        k(   25) = (   0.2500000   0.2500000   0.0000000), wk =   0.0468750
        k(   26) = (   0.2500000   0.2500000   0.2500000), wk =   0.0937500
        k(   27) = (   0.2500000   0.2500000  -0.5000000), wk =   0.0468750
        k(   28) = (   0.2500000   0.3750000   0.0000000), wk =   0.0468750
        k(   29) = (   0.2500000   0.3750000   0.2500000), wk =   0.0937500
        k(   30) = (   0.2500000   0.3750000  -0.5000000), wk =   0.0468750

     Dense  grid:    71209 G-vectors     FFT dimensions: (  48,  48,  80)

     Smooth grid:    18113 G-vectors     FFT dimensions: (  30,  30,  48)

     Dynamical RAM for                 wfc:       0.02 MB

     Dynamical RAM for     wfc (w. buffer):       0.21 MB

     Dynamical RAM for           str. fact:       0.18 MB

     Dynamical RAM for           local pot:       0.00 MB

     Dynamical RAM for          nlocal pot:       0.15 MB

     Dynamical RAM for                qrad:       3.93 MB

     Dynamical RAM for          rho,v,vnew:       0.64 MB

     Dynamical RAM for               rhoin:       0.21 MB

     Dynamical RAM for            rho*nmix:       1.45 MB

     Dynamical RAM for           G-vectors:       0.35 MB

     Dynamical RAM for          h,s,v(r/c):       0.00 MB

     Dynamical RAM for          <psi|beta>:       0.01 MB

     Dynamical RAM for                 psi:       0.05 MB

     Dynamical RAM for                hpsi:       0.05 MB

     Dynamical RAM for                spsi:       0.05 MB

     Dynamical RAM for      wfcinit/wfcrot:       0.10 MB

     Dynamical RAM for           addusdens:       4.33 MB

     Dynamical RAM for          addusforce:       4.36 MB

     Dynamical RAM for         addusstress:       4.59 MB

     Estimated static dynamical RAM per process >       6.56 MB

     Estimated max dynamical RAM per process >      12.60 MB

     Estimated total dynamical RAM >     552.56 MB

     Initial potential from superposition of free atoms

     starting charge   15.99540, renormalised to   16.00000
     Starting wfcs are   16 randomized atomic wfcs
     Checking if some PAW data can be deallocated... 
       PAW data deallocated on   24 nodes for type:  1

     total cpu time spent up to now is        0.8 secs

     Self-consistent Calculation

     iteration #  1     ecut=    60.00 Ry     beta= 0.40
     Davidson diagonalization with overlap

---- Real-time Memory Report at c_bands before calling an iterative solver
           203 MiB given to the printing process from OS
             0 MiB allocation reported by mallinfo(arena+hblkhd)
        363932 MiB available memory on the node where the printing process lives
------------------
     ethr =  1.00E-02,  avg # of iterations =  2.0

     total cpu time spent up to now is        0.9 secs

     total energy              =    -119.50547284 Ry
     estimated scf accuracy    <       1.22272840 Ry

     iteration #  2     ecut=    60.00 Ry     beta= 0.40
     Davidson diagonalization with overlap

---- Real-time Memory Report at c_bands before calling an iterative solver
           213 MiB given to the printing process from OS
             0 MiB allocation reported by mallinfo(arena+hblkhd)
        363652 MiB available memory on the node where the printing process lives
------------------
     ethr =  7.64E-03,  avg # of iterations =  2.0

     total cpu time spent up to now is        1.1 secs

     total energy              =    -119.74847740 Ry
     estimated scf accuracy    <       0.04991989 Ry

     iteration #  3     ecut=    60.00 Ry     beta= 0.40
     Davidson diagonalization with overlap

---- Real-time Memory Report at c_bands before calling an iterative solver
           216 MiB given to the printing process from OS
             0 MiB allocation reported by mallinfo(arena+hblkhd)
        363625 MiB available memory on the node where the printing process lives
------------------
     ethr =  3.12E-04,  avg # of iterations =  5.4

     total cpu time spent up to now is        1.2 secs

     total energy              =    -119.77109488 Ry
     estimated scf accuracy    <       0.07120805 Ry

     iteration #  4     ecut=    60.00 Ry     beta= 0.40
     Davidson diagonalization with overlap

---- Real-time Memory Report at c_bands before calling an iterative solver
           219 MiB given to the printing process from OS
             0 MiB allocation reported by mallinfo(arena+hblkhd)
        363615 MiB available memory on the node where the printing process lives
------------------
     ethr =  3.12E-04,  avg # of iterations =  5.3

     total cpu time spent up to now is        1.4 secs

     total energy              =    -119.75058222 Ry
     estimated scf accuracy    <       0.27304916 Ry

     iteration #  5     ecut=    60.00 Ry     beta= 0.40
     Davidson diagonalization with overlap

---- Real-time Memory Report at c_bands before calling an iterative solver
           220 MiB given to the printing process from OS
             0 MiB allocation reported by mallinfo(arena+hblkhd)
        363601 MiB available memory on the node where the printing process lives
------------------
     ethr =  3.12E-04,  avg # of iterations =  4.3

     total cpu time spent up to now is        1.6 secs

     total energy              =    -119.79280767 Ry
     estimated scf accuracy    <       0.00299512 Ry

     iteration #  6     ecut=    60.00 Ry     beta= 0.40
     Davidson diagonalization with overlap

---- Real-time Memory Report at c_bands before calling an iterative solver
           222 MiB given to the printing process from OS
             0 MiB allocation reported by mallinfo(arena+hblkhd)
        363592 MiB available memory on the node where the printing process lives
------------------
     ethr =  1.87E-05,  avg # of iterations =  4.8

     total cpu time spent up to now is        1.7 secs

     total energy              =    -119.79493130 Ry
     estimated scf accuracy    <       0.00028588 Ry

     iteration #  7     ecut=    60.00 Ry     beta= 0.40
     Davidson diagonalization with overlap

---- Real-time Memory Report at c_bands before calling an iterative solver
           223 MiB given to the printing process from OS
             0 MiB allocation reported by mallinfo(arena+hblkhd)
        363582 MiB available memory on the node where the printing process lives
------------------
     ethr =  1.79E-06,  avg # of iterations =  4.0

     total cpu time spent up to now is        1.9 secs

     total energy              =    -119.79505261 Ry
     estimated scf accuracy    <       0.00009431 Ry

     iteration #  8     ecut=    60.00 Ry     beta= 0.40
     Davidson diagonalization with overlap

---- Real-time Memory Report at c_bands before calling an iterative solver
           224 MiB given to the printing process from OS
             0 MiB allocation reported by mallinfo(arena+hblkhd)
        363571 MiB available memory on the node where the printing process lives
------------------
     ethr =  5.89E-07,  avg # of iterations =  1.3

     total cpu time spent up to now is        2.0 secs

     total energy              =    -119.79507423 Ry
     estimated scf accuracy    <       0.00010248 Ry

     iteration #  9     ecut=    60.00 Ry     beta= 0.40
     Davidson diagonalization with overlap

---- Real-time Memory Report at c_bands before calling an iterative solver
           226 MiB given to the printing process from OS
             0 MiB allocation reported by mallinfo(arena+hblkhd)
        363561 MiB available memory on the node where the printing process lives
------------------
     ethr =  5.89E-07,  avg # of iterations =  1.0

     total cpu time spent up to now is        2.1 secs

     total energy              =    -119.79506242 Ry
     estimated scf accuracy    <       0.00014476 Ry

     iteration # 10     ecut=    60.00 Ry     beta= 0.40
     Davidson diagonalization with overlap

---- Real-time Memory Report at c_bands before calling an iterative solver
           229 MiB given to the printing process from OS
             0 MiB allocation reported by mallinfo(arena+hblkhd)
        363539 MiB available memory on the node where the printing process lives
------------------
     ethr =  5.89E-07,  avg # of iterations =  1.0

     total cpu time spent up to now is        2.2 secs

     total energy              =    -119.79503752 Ry
     estimated scf accuracy    <       0.00011534 Ry

     iteration # 11     ecut=    60.00 Ry     beta= 0.40
     Davidson diagonalization with overlap

---- Real-time Memory Report at c_bands before calling an iterative solver
           230 MiB given to the printing process from OS
             0 MiB allocation reported by mallinfo(arena+hblkhd)
        363533 MiB available memory on the node where the printing process lives
------------------
     ethr =  5.89E-07,  avg # of iterations =  1.0

     total cpu time spent up to now is        2.3 secs

     total energy              =    -119.79504166 Ry
     estimated scf accuracy    <       0.00004769 Ry

     iteration # 12     ecut=    60.00 Ry     beta= 0.40
     Davidson diagonalization with overlap

---- Real-time Memory Report at c_bands before calling an iterative solver
           231 MiB given to the printing process from OS
             0 MiB allocation reported by mallinfo(arena+hblkhd)
        363526 MiB available memory on the node where the printing process lives
------------------
     ethr =  2.98E-07,  avg # of iterations =  1.0

     total cpu time spent up to now is        2.4 secs

     total energy              =    -119.79504997 Ry
     estimated scf accuracy    <       0.00004916 Ry

     iteration # 13     ecut=    60.00 Ry     beta= 0.40
     Davidson diagonalization with overlap

---- Real-time Memory Report at c_bands before calling an iterative solver
           232 MiB given to the printing process from OS
             0 MiB allocation reported by mallinfo(arena+hblkhd)
        363520 MiB available memory on the node where the printing process lives
------------------
     ethr =  2.98E-07,  avg # of iterations =  1.0

     total cpu time spent up to now is        2.5 secs

     total energy              =    -119.79502577 Ry
     estimated scf accuracy    <       0.00006167 Ry

     iteration # 14     ecut=    60.00 Ry     beta= 0.40
     Davidson diagonalization with overlap

---- Real-time Memory Report at c_bands before calling an iterative solver
           232 MiB given to the printing process from OS
             0 MiB allocation reported by mallinfo(arena+hblkhd)
        363515 MiB available memory on the node where the printing process lives
------------------
     ethr =  2.98E-07,  avg # of iterations =  2.0

     total cpu time spent up to now is        2.6 secs

     total energy              =    -119.79502875 Ry
     estimated scf accuracy    <       0.00000982 Ry

     iteration # 15     ecut=    60.00 Ry     beta= 0.40
     Davidson diagonalization with overlap

---- Real-time Memory Report at c_bands before calling an iterative solver
           233 MiB given to the printing process from OS
             0 MiB allocation reported by mallinfo(arena+hblkhd)
        363511 MiB available memory on the node where the printing process lives
------------------
     ethr =  6.14E-08,  avg # of iterations =  3.2

     total cpu time spent up to now is        2.8 secs

     total energy              =    -119.79503134 Ry
     estimated scf accuracy    <       0.00000088 Ry

     iteration # 16     ecut=    60.00 Ry     beta= 0.40
     Davidson diagonalization with overlap

---- Real-time Memory Report at c_bands before calling an iterative solver
           234 MiB given to the printing process from OS
             0 MiB allocation reported by mallinfo(arena+hblkhd)
        363504 MiB available memory on the node where the printing process lives
------------------
     ethr =  5.50E-09,  avg # of iterations =  6.0

     total cpu time spent up to now is        3.0 secs

     total energy              =    -119.79503195 Ry
     estimated scf accuracy    <       0.00000158 Ry

     iteration # 17     ecut=    60.00 Ry     beta= 0.40
     Davidson diagonalization with overlap

---- Real-time Memory Report at c_bands before calling an iterative solver
           235 MiB given to the printing process from OS
             0 MiB allocation reported by mallinfo(arena+hblkhd)
        363498 MiB available memory on the node where the printing process lives
------------------
     ethr =  5.50E-09,  avg # of iterations =  3.2

     total cpu time spent up to now is        3.1 secs

     total energy              =    -119.79503243 Ry
     estimated scf accuracy    <       0.00000017 Ry

     iteration # 18     ecut=    60.00 Ry     beta= 0.40
     Davidson diagonalization with overlap

---- Real-time Memory Report at c_bands before calling an iterative solver
           236 MiB given to the printing process from OS
             0 MiB allocation reported by mallinfo(arena+hblkhd)
        363486 MiB available memory on the node where the printing process lives
------------------
     ethr =  1.06E-09,  avg # of iterations =  2.0

     total cpu time spent up to now is        3.2 secs

     total energy              =    -119.79503238 Ry
     estimated scf accuracy    <       0.00000013 Ry

     iteration # 19     ecut=    60.00 Ry     beta= 0.40
     Davidson diagonalization with overlap

---- Real-time Memory Report at c_bands before calling an iterative solver
           236 MiB given to the printing process from OS
             0 MiB allocation reported by mallinfo(arena+hblkhd)
        363486 MiB available memory on the node where the printing process lives
------------------
     ethr =  8.04E-10,  avg # of iterations =  2.9

     total cpu time spent up to now is        3.4 secs

     total energy              =    -119.79503241 Ry
     estimated scf accuracy    <       0.00000010 Ry

     iteration # 20     ecut=    60.00 Ry     beta= 0.40
     Davidson diagonalization with overlap

---- Real-time Memory Report at c_bands before calling an iterative solver
           237 MiB given to the printing process from OS
             0 MiB allocation reported by mallinfo(arena+hblkhd)
        363482 MiB available memory on the node where the printing process lives
------------------
     ethr =  6.27E-10,  avg # of iterations =  2.0

     total cpu time spent up to now is        3.5 secs

     total energy              =    -119.79503252 Ry
     estimated scf accuracy    <       0.00000006 Ry

     iteration # 21     ecut=    60.00 Ry     beta= 0.40
     Davidson diagonalization with overlap

---- Real-time Memory Report at c_bands before calling an iterative solver
           238 MiB given to the printing process from OS
             0 MiB allocation reported by mallinfo(arena+hblkhd)
        363475 MiB available memory on the node where the printing process lives
------------------
     ethr =  3.99E-10,  avg # of iterations =  5.3

     total cpu time spent up to now is        3.7 secs

     total energy              =    -119.79503280 Ry
     estimated scf accuracy    <       0.00000098 Ry

     iteration # 22     ecut=    60.00 Ry     beta= 0.40
     Davidson diagonalization with overlap

---- Real-time Memory Report at c_bands before calling an iterative solver
           239 MiB given to the printing process from OS
             0 MiB allocation reported by mallinfo(arena+hblkhd)
        363471 MiB available memory on the node where the printing process lives
------------------
     ethr =  3.99E-10,  avg # of iterations =  2.0

     total cpu time spent up to now is        3.8 secs

     total energy              =    -119.79503313 Ry
     estimated scf accuracy    <       0.00000132 Ry

     iteration # 23     ecut=    60.00 Ry     beta= 0.40
     Davidson diagonalization with overlap

---- Real-time Memory Report at c_bands before calling an iterative solver
           240 MiB given to the printing process from OS
             0 MiB allocation reported by mallinfo(arena+hblkhd)
        363469 MiB available memory on the node where the printing process lives
------------------
     ethr =  3.99E-10,  avg # of iterations =  3.7

     total cpu time spent up to now is        3.9 secs

     total energy              =    -119.79503304 Ry
     estimated scf accuracy    <       0.00000254 Ry

     iteration # 24     ecut=    60.00 Ry     beta= 0.40
     Davidson diagonalization with overlap

---- Real-time Memory Report at c_bands before calling an iterative solver
           240 MiB given to the printing process from OS
             0 MiB allocation reported by mallinfo(arena+hblkhd)
        363466 MiB available memory on the node where the printing process lives
------------------
     ethr =  3.99E-10,  avg # of iterations =  1.0

     total cpu time spent up to now is        4.0 secs

     total energy              =    -119.79503197 Ry
     estimated scf accuracy    <       0.00000224 Ry

     iteration # 25     ecut=    60.00 Ry     beta= 0.40
     Davidson diagonalization with overlap

---- Real-time Memory Report at c_bands before calling an iterative solver
           241 MiB given to the printing process from OS
             0 MiB allocation reported by mallinfo(arena+hblkhd)
        363463 MiB available memory on the node where the printing process lives
------------------
     ethr =  3.99E-10,  avg # of iterations =  6.4

     total cpu time spent up to now is        4.2 secs

     total energy              =    -119.79503240 Ry
     estimated scf accuracy    <          1.6E-09 Ry

     iteration # 26     ecut=    60.00 Ry     beta= 0.40
     Davidson diagonalization with overlap

---- Real-time Memory Report at c_bands before calling an iterative solver
           242 MiB given to the printing process from OS
             0 MiB allocation reported by mallinfo(arena+hblkhd)
        363456 MiB available memory on the node where the printing process lives
------------------
     ethr =  9.98E-12,  avg # of iterations =  7.6

     total cpu time spent up to now is        4.5 secs

     total energy              =    -119.79503240 Ry
     estimated scf accuracy    <       0.00000003 Ry

     iteration # 27     ecut=    60.00 Ry     beta= 0.40
     Davidson diagonalization with overlap

---- Real-time Memory Report at c_bands before calling an iterative solver
           242 MiB given to the printing process from OS
             0 MiB allocation reported by mallinfo(arena+hblkhd)
        363453 MiB available memory on the node where the printing process lives
------------------
     ethr =  9.98E-12,  avg # of iterations =  6.4

     total cpu time spent up to now is        4.7 secs

     End of self-consistent calculation

          k = 0.0000 0.0000 0.0000 (  2297 PWs)   bands (ev):

    -8.1615  -6.0801   0.9958   6.0578   6.0578   6.7002   6.7002   6.9012

     occupation numbers 
     1.0000   1.0000   1.0000   1.0000   1.0000   1.0000   1.0000   1.0000

          k = 0.0000 0.0000 0.1559 (  2267 PWs)   bands (ev):

    -7.9305  -6.4968   1.7736   5.6984   6.1472   6.1472   6.6014   6.6014

     occupation numbers 
     1.0000   1.0000   1.0000   1.0000   1.0000   1.0000   1.0000   1.0000

          k = 0.0000 0.0000-0.3119 (  2292 PWs)   bands (ev):

    -7.2972  -7.2972   3.6012   3.6012   6.3695   6.3695   6.3695   6.3695

     occupation numbers 
     1.0000   1.0000   1.0000   1.0000   1.0000   1.0000   1.0000   1.0000

          k = 0.0722 0.1250 0.0000 (  2265 PWs)   bands (ev):

    -7.9682  -5.9728   1.2284   5.1975   5.8195   5.8753   6.6608   6.8114

     occupation numbers 
     1.0000   1.0000   1.0000   1.0000   1.0000   1.0000   1.0000   1.0000

          k = 0.0722 0.1250 0.1559 (  2264 PWs)   bands (ev):

    -7.7436  -6.3650   1.9285   5.1141   5.4552   5.9320   6.4198   6.5256

     occupation numbers 
     1.0000   1.0000   1.0000   1.0000   1.0000   1.0000   1.0000   1.0000

          k = 0.0722 0.1250-0.3119 (  2266 PWs)   bands (ev):

    -7.1305  -7.1305   3.5293   3.5293   5.8526   5.8526   6.2175   6.2175

     occupation numbers 
     1.0000   1.0000   1.0000   1.0000   1.0000   1.0000   1.0000   1.0000

          k = 0.1443 0.2500 0.0000 (  2263 PWs)   bands (ev):

    -7.4303  -5.7198   1.8961   3.4967   4.4604   5.3620   6.4706   6.4955

     occupation numbers 
     1.0000   1.0000   1.0000   1.0000   1.0000   1.0000   1.0000   1.0000

          k = 0.1443 0.2500 0.1559 (  2261 PWs)   bands (ev):

    -7.2271  -6.0346   2.1978   3.6802   4.2829   5.5060   6.2743   6.3029

     occupation numbers 
     1.0000   1.0000   1.0000   1.0000   1.0000   1.0000   1.0000   1.0000

          k = 0.1443 0.2500-0.3119 (  2268 PWs)   bands (ev):

    -6.6835  -6.6835   2.9251   2.9251   5.3235   5.3235   5.8807   5.8807

     occupation numbers 
     1.0000   1.0000   1.0000   1.0000   1.0000   1.0000   1.0000   1.0000

          k = 0.2165 0.3750 0.0000 (  2250 PWs)   bands (ev):

    -6.7054  -5.5369   2.0704   2.8725   3.2778   4.9884   5.7803   6.3026

     occupation numbers 
     1.0000   1.0000   1.0000   1.0000   1.0000   1.0000   1.0000   1.0000

          k = 0.2165 0.3750 0.1559 (  2254 PWs)   bands (ev):

    -6.5479  -5.7209   1.7255   2.5830   4.0243   5.1507   6.0046   6.0721

     occupation numbers 
     1.0000   1.0000   1.0000   1.0000   1.0000   1.0000   1.0000   1.0000

          k = 0.2165 0.3750-0.3119 (  2254 PWs)   bands (ev):

    -6.1481  -6.1481   1.8776   1.8776   5.4291   5.4291   5.5784   5.5784

     occupation numbers 
     1.0000   1.0000   1.0000   1.0000   1.0000   1.0000   1.0000   1.0000

          k =-0.2887-0.5000 0.0000 (  2256 PWs)   bands (ev):

    -6.2487  -5.5747   1.5278   2.7820   3.6082   4.8492   5.1591   6.2211

     occupation numbers 
     1.0000   1.0000   1.0000   1.0000   1.0000   1.0000   1.0000   1.0000

          k =-0.2887-0.5000 0.1559 (  2250 PWs)   bands (ev):

    -6.1403  -5.6584   1.2923   2.1150   4.3711   5.0172   5.7204   5.9781

     occupation numbers 
     1.0000   1.0000   1.0000   1.0000   1.0000   1.0000   1.0000   1.0000

          k =-0.2887-0.5000-0.3119 (  2252 PWs)   bands (ev):

    -5.8875  -5.8875   1.3818   1.3818   5.4615   5.4615   5.5565   5.5565

     occupation numbers 
     1.0000   1.0000   1.0000   1.0000   1.0000   1.0000   1.0000   1.0000

          k = 0.2165 0.1250 0.0000 (  2257 PWs)   bands (ev):

    -7.6017  -5.7913   1.6794   4.2754   4.4427   5.6659   6.3532   6.5993

     occupation numbers 
     1.0000   1.0000   1.0000   1.0000   1.0000   1.0000   1.0000   1.0000

          k = 0.2165 0.1250 0.1559 (  2257 PWs)   bands (ev):

    -7.3909  -6.1326   2.1644   4.1453   4.6121   5.5014   6.1705   6.4139

     occupation numbers 
     1.0000   1.0000   1.0000   1.0000   1.0000   1.0000   1.0000   1.0000

          k = 0.2165 0.1250-0.3119 (  2262 PWs)   bands (ev):

    -6.8225  -6.8225   3.2031   3.2031   5.4026   5.4026   5.8792   5.8792

     occupation numbers 
     1.0000   1.0000   1.0000   1.0000   1.0000   1.0000   1.0000   1.0000

          k = 0.2887 0.2500 0.0000 (  2256 PWs)   bands (ev):

    -6.9599  -5.5664   2.5096   2.8098   3.5167   4.9172   5.9740   6.0964

     occupation numbers 
     1.0000   1.0000   1.0000   1.0000   1.0000   1.0000   1.0000   1.0000

          k = 0.2887 0.2500 0.1559 (  2257 PWs)   bands (ev):

    -6.7827  -5.8025   2.1651   2.9494   4.0761   4.8619   5.6795   6.2772

     occupation numbers 
     1.0000   1.0000   1.0000   1.0000   1.0000   1.0000   1.0000   1.0000

          k = 0.2887 0.2500-0.3119 (  2248 PWs)   bands (ev):

    -6.3216  -6.3216   2.3860   2.3860   4.9814   4.9814   5.7113   5.7113

     occupation numbers 
     1.0000   1.0000   1.0000   1.0000   1.0000   1.0000   1.0000   1.0000

          k = 0.3608 0.3750 0.0000 (  2258 PWs)   bands (ev):

    -6.2968  -5.5339   1.8125   2.9722   3.5128   4.3550   5.3267   5.7408

     occupation numbers 
     1.0000   1.0000   1.0000   1.0000   1.0000   1.0000   1.0000   1.0000

          k = 0.3608 0.3750 0.1559 (  2261 PWs)   bands (ev):

    -6.1795  -5.6355   1.5777   2.3245   4.0316   4.8056   5.3342   5.9470

     occupation numbers 
     1.0000   1.0000   1.0000   1.0000   1.0000   1.0000   1.0000   1.0000

          k = 0.3608 0.3750-0.3119 (  2260 PWs)   bands (ev):

    -5.9002  -5.9002   1.6503   1.6503   4.6381   4.6381   5.8750   5.8750

     occupation numbers 
     1.0000   1.0000   1.0000   1.0000   1.0000   1.0000   1.0000   1.0000

          k = 0.4330 0.2500 0.0000 (  2261 PWs)   bands (ev):

    -6.3396  -5.4985   2.3656   2.8643   3.4275   4.0760   5.1305   5.4897

     occupation numbers 
     1.0000   1.0000   1.0000   1.0000   1.0000   1.0000   1.0000   1.0000

          k = 0.4330 0.2500 0.1559 (  2251 PWs)   bands (ev):

    -6.2149  -5.6164   2.1831   2.2917   3.7366   4.4826   4.8914   6.0233

     occupation numbers 
     1.0000   1.0000   1.0000   1.0000   1.0000   1.0000   1.0000   1.0000

          k = 0.4330 0.2500-0.3119 (  2252 PWs)   bands (ev):

    -5.9127  -5.9127   2.0231   2.0231   3.9869   3.9869   5.9419   5.9419

     occupation numbers 
     1.0000   1.0000   1.0000   1.0000   1.0000   1.0000   1.0000   1.0000

          k = 0.5052 0.3750 0.0000 (  2256 PWs)   bands (ev):

    -5.9207  -5.6087   2.0448   3.1494   3.3303   4.1619   4.7554   4.9077

     occupation numbers 
     1.0000   1.0000   1.0000   1.0000   1.0000   1.0000   1.0000   1.0000

          k = 0.5052 0.3750 0.1559 (  2257 PWs)   bands (ev):

    -5.8569  -5.6336   1.9735   2.5049   3.0120   4.2900   5.1616   5.6800

     occupation numbers 
     1.0000   1.0000   1.0000   1.0000   1.0000   1.0000   1.0000   1.0000

          k = 0.5052 0.3750-0.3119 (  2250 PWs)   bands (ev):

    -5.7257  -5.7257   1.9443   1.9443   3.4699   3.4699   6.0757   6.0757

     occupation numbers 
     1.0000   1.0000   1.0000   1.0000   1.0000   1.0000   1.0000   1.0000

     highest occupied level (ev):     6.9012

!    total energy              =    -119.79503241 Ry
     estimated scf accuracy    <          5.5E-10 Ry

     The total energy is the sum of the following terms:
     one-electron contribution =      -2.21281471 Ry
     hartree contribution      =      11.48065165 Ry
     xc contribution           =     -16.48342853 Ry
     ewald contribution        =     -43.21313419 Ry
     one-center paw contrib.   =     -69.36630662 Ry
      -> PAW hartree energy AE =       2.31118606 Ry
      -> PAW hartree energy PS =      -2.30667309 Ry
      -> PAW xc energy AE      =     -36.99226609 Ry
      -> PAW xc energy PS      =       2.30459990 Ry
      -> total E_H with PAW    =      11.48516462 Ry
      -> total E_XC with PAW   =     -51.17109472 Ry

     convergence has been achieved in  27 iterations

     Forces acting on atoms (cartesian axes, Ry/au):

     atom    1 type  1   force =    -0.00000000   -0.00000000    0.00001214
     atom    2 type  1   force =     0.00000000    0.00000000    0.00001214
     atom    3 type  2   force =     0.00000000   -0.00000000   -0.00001214
     atom    4 type  2   force =     0.00000000   -0.00000000   -0.00001214
     The non-local contrib.  to forces
     atom    1 type  1   force =     0.00000000   -0.00000000   -0.00838854
     atom    2 type  1   force =    -0.00000000   -0.00000000   -0.00838854
     atom    3 type  2   force =    -0.00000000   -0.00000000    0.00334854
     atom    4 type  2   force =     0.00000000    0.00000000    0.00334854
     The ionic contribution  to forces
     atom    1 type  1   force =    -0.00000003   -0.00000000    0.00212192
     atom    2 type  1   force =     0.00000003    0.00000000    0.00212192
     atom    3 type  2   force =    -0.00000003   -0.00000000   -0.00212192
     atom    4 type  2   force =     0.00000003    0.00000000   -0.00212192
     The local contribution  to forces
     atom    1 type  1   force =     0.00000002    0.00000000    0.00512948
     atom    2 type  1   force =    -0.00000002   -0.00000000    0.00512948
     atom    3 type  2   force =     0.00000001   -0.00000000   -0.00121493
     atom    4 type  2   force =    -0.00000000    0.00000000   -0.00121494
     The core correction contribution to forces
     atom    1 type  1   force =     0.00000000    0.00000000    0.00114916
     atom    2 type  1   force =    -0.00000000   -0.00000000    0.00114916
     atom    3 type  2   force =     0.00000000    0.00000000   -0.00002328
     atom    4 type  2   force =    -0.00000000   -0.00000000   -0.00002328
     The Hubbard contrib.    to forces
     atom    1 type  1   force =     0.00000000    0.00000000    0.00000000
     atom    2 type  1   force =     0.00000000    0.00000000    0.00000000
     atom    3 type  2   force =     0.00000000    0.00000000    0.00000000
     atom    4 type  2   force =     0.00000000    0.00000000    0.00000000
     The SCF correction term to forces
     atom    1 type  1   force =     0.00000000    0.00000000   -0.00000003
     atom    2 type  1   force =    -0.00000000    0.00000000   -0.00000003
     atom    3 type  2   force =    -0.00000000   -0.00000000   -0.00000071
     atom    4 type  2   force =     0.00000000    0.00000000   -0.00000071

     Total force =     0.000024     Total SCF correction =     0.000001


     Computing stress (Cartesian axis) and pressure

          total   stress  (Ry/bohr**3)                   (kbar)     P=       -0.39
  -0.00000166  -0.00000000   0.00000000           -0.24       -0.00        0.00
   0.00000000  -0.00000166   0.00000000            0.00       -0.24        0.00
   0.00000000   0.00000000  -0.00000458            0.00        0.00       -0.67

     kinetic stress (kbar)   9285.46      0.00      0.00
                                0.00   9285.46      0.00
                                0.00      0.00   9324.52

     local   stress (kbar)  -4813.53     -0.00     -0.00
                               -0.00  -4813.53     -0.00
                               -0.00     -0.00  -5206.28

     nonloc. stress (kbar)   3476.62      0.00     -0.00
                                0.00   3476.62      0.00
                                0.00     -0.00   3448.08

     hartree stress (kbar)   1897.76      0.00      0.00
                                0.00   1897.76      0.00
                                0.00      0.00   2078.69

     exc-cor stress (kbar)  -1016.22      0.00      0.00
                                0.00  -1016.22      0.00
                                0.00      0.00  -1016.15

     corecor stress (kbar)  -1394.64     -0.00     -0.00
                               -0.00  -1394.64     -0.00
                               -0.00     -0.00  -1390.43

     ewald   stress (kbar)  -7435.69      0.00     -0.00
                                0.00  -7435.69     -0.00
                               -0.00     -0.00  -7239.11

     hubbard stress (kbar)      0.00      0.00      0.00
                                0.00      0.00      0.00
                                0.00      0.00      0.00

     DFT-D   stress (kbar)      0.00      0.00      0.00
                                0.00      0.00      0.00
                                0.00      0.00      0.00

     XDM     stress (kbar)      0.00      0.00      0.00
                                0.00      0.00      0.00
                                0.00      0.00      0.00

     dft-nl  stress (kbar)      0.00      0.00      0.00
                                0.00      0.00      0.00
                                0.00      0.00      0.00

     TS-vdW  stress (kbar)      0.00      0.00      0.00
                                0.00      0.00      0.00
                                0.00      0.00      0.00


                                0.00      0.00      0.00
                                0.00      0.00      0.00


                                0.00      0.00      0.00


     BFGS Geometry Optimization
     Energy error            =      0.0E+00 Ry
     Gradient error          =      1.2E-05 Ry/Bohr

     bfgs converged in   1 scf cycles and   0 bfgs steps
     (criteria: energy <  1.0E-04 Ry, force <  1.0E-03 Ry/Bohr)

     End of BFGS Geometry Optimization

     Final energy             =    -119.7950324075 Ry
Begin final coordinates

ATOMIC_POSITIONS (angstrom)
Al            0.9037450060        1.5653322571       -0.0037653424
Al            1.8074900119        0.0000000000        2.5058927507
N             0.9037450060        1.5653322571        1.9111054932
N             1.8074900119        0.0000000000        4.4207635863
End final coordinates



     Writing output data file ./aln.save/
 
     init_run     :      0.31s CPU      0.56s WALL (       1 calls)
     electrons    :      3.77s CPU      4.00s WALL (       1 calls)
     forces       :      0.09s CPU      0.10s WALL (       1 calls)
     stress       :      0.18s CPU      0.18s WALL (       1 calls)

     Called by init_run:
     wfcinit      :      0.08s CPU      0.15s WALL (       1 calls)
     wfcinit:atom :      0.00s CPU      0.00s WALL (       8 calls)
     wfcinit:wfcr :      0.08s CPU      0.15s WALL (       8 calls)
     potinit      :      0.07s CPU      0.11s WALL (       1 calls)
     hinit0       :      0.11s CPU      0.17s WALL (       1 calls)

     Called by electrons:
     c_bands      :      2.13s CPU      2.24s WALL (      27 calls)
     sum_band     :      0.37s CPU      0.39s WALL (      27 calls)
     v_of_rho     :      0.19s CPU      0.20s WALL (      28 calls)
     v_h          :      0.01s CPU      0.01s WALL (      28 calls)
     v_xc         :      0.19s CPU      0.20s WALL (      30 calls)
     newd         :      0.17s CPU      0.19s WALL (      28 calls)
     PAW_pot      :      0.88s CPU      0.91s WALL (      28 calls)
     mix_rho      :      0.03s CPU      0.03s WALL (      27 calls)

     Called by c_bands:
     init_us_2    :      0.03s CPU      0.04s WALL (     456 calls)
     cegterg      :      1.74s CPU      1.79s WALL (     216 calls)

     Called by sum_band:
     sum_band:wei :      0.00s CPU      0.00s WALL (      27 calls)
     sum_band:loo :      0.11s CPU      0.13s WALL (      27 calls)
     sum_band:buf :      0.00s CPU      0.00s WALL (     216 calls)
     sum_band:ini :      0.02s CPU      0.02s WALL (     216 calls)
     sum_band:cal :      0.01s CPU      0.01s WALL (     216 calls)
     sum_band:bec :      0.00s CPU      0.02s WALL (     216 calls)
     addusdens    :      0.19s CPU      0.20s WALL (      27 calls)
     addusd:skk   :      0.00s CPU      0.00s WALL (      54 calls)
     addusd:dgemm :      0.06s CPU      0.06s WALL (      54 calls)
     addusd:qvan2 :      0.11s CPU      0.11s WALL (      54 calls)

     Called by *egterg:
     cdiaghg      :      0.80s CPU      0.87s WALL (     903 calls)
     cegterg:over :      0.18s CPU      0.19s WALL (     687 calls)
     cegterg:upda :      0.04s CPU      0.05s WALL (     687 calls)
     cegterg:last :      0.10s CPU      0.10s WALL (     593 calls)
     cdiaghg:chol :      0.07s CPU      0.08s WALL (     903 calls)
     cdiaghg:inve :      0.07s CPU      0.07s WALL (     903 calls)
     cdiaghg:para :      0.08s CPU      0.09s WALL (    1806 calls)
     h_psi        :      0.62s CPU      0.66s WALL (     911 calls)
     s_psi        :      0.02s CPU      0.02s WALL (     911 calls)
     g_psi        :      0.00s CPU      0.00s WALL (     687 calls)

     Called by h_psi:
     h_psi:calbec :      0.05s CPU      0.05s WALL (     911 calls)
     vloc_psi     :      0.54s CPU      0.57s WALL (     911 calls)
     add_vuspsi   :      0.02s CPU      0.03s WALL (     911 calls)

     General routines
     calbec       :      0.06s CPU      0.07s WALL (    1167 calls)
     fft          :      0.09s CPU      0.11s WALL (     387 calls)
     ffts         :      0.00s CPU      0.03s WALL (      55 calls)
     fftw         :      0.56s CPU      0.58s WALL (   13524 calls)
     interpolate  :      0.01s CPU      0.04s WALL (      28 calls)
 
     Parallel routines

     PAW routines
     PAW_pot      :      0.88s CPU      0.91s WALL (      28 calls)
     PAW_symme    :      0.01s CPU      0.01s WALL (      55 calls)
 
     PWSCF        :      4.49s CPU      5.18s WALL

 
   This run was terminated on:  18: 6: 7  13May2023            

=------------------------------------------------------------------------------=
   JOB DONE.
=------------------------------------------------------------------------------=
