
     Program PHONON v.6.8 starts on 13May2023 at 16: 1:40 

     This program is part of the open-source Quantum ESPRESSO suite
     for quantum simulation of materials; please cite
         "P. Giannozzi et al., J. Phys.:Condens. Matter 21 395502 (2009);
         "P. Giannozzi et al., J. Phys.:Condens. Matter 29 465901 (2017);
         "P. Giannozzi et al., J. Chem. Phys. 152 154105 (2020);
          URL http://www.quantum-espresso.org", 
     in publications or presentations arising from this work. More details at
     http://www.quantum-espresso.org/quote

     Parallel version (MPI), running on     1 processors

     MPI processes distributed on     1 nodes
     1815 MiB available memory on the printing compute node when the environment starts

     Reading input from ph.silicon.in

     Reading xml data from directory:

     ./si.save/
     Message from routine volume:
     axis vectors are left-handed

     IMPORTANT: XC functional enforced from input :
     Exchange-correlation= PBE
                           (   1   4   3   4   0   0   0)
     Any further DFT definition will be discarded
     Please, verify this is what you really want


     G-vector sticks info
     --------------------
     sticks:   dense  smooth     PW     G-vecs:    dense   smooth      PW
     Sum         877     439    151                17261     6183    1139

     Using Slab Decomposition

     Reading collected, re-writing distributed wavefunctions


     Dynamical matrices for ( 2, 2, 2)  uniform grid of q-points
     (   3 q-points):
       N         xq(1)         xq(2)         xq(3) 
       1   0.000000000   0.000000000   0.000000000
       2   0.353553391  -0.353553391  -0.353553391
       3   0.000000000   0.000000000  -0.707106781

     Calculation of q =    0.0000000   0.0000000   0.0000000

     phonons of Si mesh                                                         

     bravais-lattice index     =            0
     lattice parameter (alat)  =       7.3077  a.u.
     unit-cell volume          =     275.9486 (a.u.)^3
     number of atoms/cell      =            2
     number of atomic types    =            1
     kinetic-energy cut-off    =      30.0000  Ry
     charge density cut-off    =     240.0000  Ry
     convergence threshold     =      1.0E-16
     beta                      =       0.5000
     number of iterations used =            4
     Exchange-correlation= PBE
                           (   1   4   3   4   0   0   0)


     celldm(1)=    7.30771  celldm(2)=    0.00000  celldm(3)=    0.00000
     celldm(4)=    0.00000  celldm(5)=    0.00000  celldm(6)=    0.00000

     crystal axes: (cart. coord. in units of alat)
               a(1) = (  0.7071  0.7071  0.0000 )  
               a(2) = (  0.7071  0.0000  0.7071 )  
               a(3) = (  0.0000  0.7071  0.7071 )  

     reciprocal axes: (cart. coord. in units 2 pi/alat)
               b(1) = (  0.7071  0.7071 -0.7071 )  
               b(2) = (  0.7071 -0.7071  0.7071 )  
               b(3) = ( -0.7071  0.7071  0.7071 )  


     Atoms inside the unit cell: 

     Cartesian axes

     site n.  atom      mass           positions (alat units)
        1     Si  28.0855   tau(    1) = (    0.00000    0.00000    0.00000  )
        2     Si  28.0855   tau(    2) = (    0.35355    0.35355    0.35355  )

     Computing dynamical matrix for 
                    q = (   0.0000000   0.0000000   0.0000000 )

     49 Sym.Ops. (with q -> -q+G )


     G cutoff =  324.6487  (  17261 G-vectors)     FFT grid: ( 40, 40, 40)
     G cutoff =  162.3244  (   6183 G-vectors)  smooth grid: ( 32, 32, 32)
     number of k points=    29

     PseudoPot. # 1 for Si read from file:
     ./pseudo/Si.pbe-n-rrkjus_psl.1.0.0.UPF
     MD5 check sum: 0b0bb1205258b0d07b9f9672cf965d36
     Pseudo is Ultrasoft + core correction, Zval =  4.0
     Generated using "atomic" code by A. Dal Corso  v.5.1
     Using radial grid of 1141 points,  6 beta functions with: 
                l(1) =   0
                l(2) =   0
                l(3) =   1
                l(4) =   1
                l(5) =   2
                l(6) =   2
     Q(r) pseudized with 0 coefficients 


     Mode symmetry, O_h (m-3m)  point group:


     Electric field:
     Dielectric constant
     Born effective charges in two ways 


     Atomic displacements:
     There are    2 irreducible representations

     Representation     1      3 modes -  To be done

     Representation     2      3 modes -  To be done



     Alpha used in Ewald sum =   2.5000
     PHONON       :      2.80s CPU      2.86s WALL


     Electric Fields Calculation

      iter #   1 total cpu time :     9.0 secs   av.it.:   6.4
      thresh= 1.000E-02 alpha_mix =  0.500 |ddv_scf|^2 =  1.969E-07

      iter #   2 total cpu time :    12.1 secs   av.it.:  10.3
      thresh= 4.437E-05 alpha_mix =  0.500 |ddv_scf|^2 =  1.197E-08

      iter #   3 total cpu time :    14.8 secs   av.it.:  10.3
      thresh= 1.094E-05 alpha_mix =  0.500 |ddv_scf|^2 =  1.796E-09

      iter #   4 total cpu time :    17.9 secs   av.it.:  10.3
      thresh= 4.238E-06 alpha_mix =  0.500 |ddv_scf|^2 =  1.303E-11

      iter #   5 total cpu time :    21.0 secs   av.it.:  10.4
      thresh= 3.610E-07 alpha_mix =  0.500 |ddv_scf|^2 =  4.506E-14

      iter #   6 total cpu time :    24.1 secs   av.it.:  10.5
      thresh= 2.123E-08 alpha_mix =  0.500 |ddv_scf|^2 =  2.493E-15

      iter #   7 total cpu time :    27.2 secs   av.it.:  10.3
      thresh= 4.993E-09 alpha_mix =  0.500 |ddv_scf|^2 =  2.119E-18

     End of electric fields calculation

          Dielectric constant in cartesian axis 

          (      14.147436348      -0.000000000       0.000000000 )
          (       0.000000000      14.147436348      -0.000000000 )
          (      -0.000000000      -0.000000000      14.147436348 )

          Effective charges (d Force / dE) in cartesian axis

           atom      1   Si 
      Ex  (       -0.08864        0.00000        0.00000 )
      Ey  (        0.00000       -0.08864        0.00000 )
      Ez  (        0.00000        0.00000       -0.08864 )
           atom      2   Si 
      Ex  (       -0.08864       -0.00000        0.00000 )
      Ey  (        0.00000       -0.08864        0.00000 )
      Ez  (        0.00000        0.00000       -0.08864 )


     Representation #   1 modes #   1   2   3

     Self-consistent Calculation

      iter #   1 total cpu time :    32.7 secs   av.it.:   5.3
      thresh= 1.000E-02 alpha_mix =  0.500 |ddv_scf|^2 =  2.466E-08

      iter #   2 total cpu time :    35.8 secs   av.it.:  10.3
      thresh= 1.570E-05 alpha_mix =  0.500 |ddv_scf|^2 =  4.214E-09

      iter #   3 total cpu time :    38.6 secs   av.it.:  10.3
      thresh= 6.492E-06 alpha_mix =  0.500 |ddv_scf|^2 =  2.448E-10

      iter #   4 total cpu time :    41.4 secs   av.it.:  10.4
      thresh= 1.565E-06 alpha_mix =  0.500 |ddv_scf|^2 =  4.868E-13

      iter #   5 total cpu time :    44.2 secs   av.it.:  10.9
      thresh= 6.977E-08 alpha_mix =  0.500 |ddv_scf|^2 =  2.111E-14

      iter #   6 total cpu time :    47.3 secs   av.it.:  11.0
      thresh= 1.453E-08 alpha_mix =  0.500 |ddv_scf|^2 =  1.014E-15

      iter #   7 total cpu time :    50.1 secs   av.it.:  10.8
      thresh= 3.184E-09 alpha_mix =  0.500 |ddv_scf|^2 =  2.952E-18

     End of self-consistent calculation

     Convergence has been achieved 


     Representation #   2 modes #   4   5   6

     Self-consistent Calculation

      iter #   1 total cpu time :    53.7 secs   av.it.:   5.4
      thresh= 1.000E-02 alpha_mix =  0.500 |ddv_scf|^2 =  2.269E-08

      iter #   2 total cpu time :    56.8 secs   av.it.:  10.4
      thresh= 1.506E-05 alpha_mix =  0.500 |ddv_scf|^2 =  4.376E-09

      iter #   3 total cpu time :    60.0 secs   av.it.:  10.6
      thresh= 6.615E-06 alpha_mix =  0.500 |ddv_scf|^2 =  1.642E-10

      iter #   4 total cpu time :    63.2 secs   av.it.:  10.5
      thresh= 1.282E-06 alpha_mix =  0.500 |ddv_scf|^2 =  4.759E-13

      iter #   5 total cpu time :    66.3 secs   av.it.:  10.8
      thresh= 6.898E-08 alpha_mix =  0.500 |ddv_scf|^2 =  9.397E-15

      iter #   6 total cpu time :    69.2 secs   av.it.:  10.7
      thresh= 9.694E-09 alpha_mix =  0.500 |ddv_scf|^2 =  3.832E-16

      iter #   7 total cpu time :    72.1 secs   av.it.:  10.5
      thresh= 1.958E-09 alpha_mix =  0.500 |ddv_scf|^2 =  1.535E-18

     End of self-consistent calculation

     Convergence has been achieved 

     Number of q in the star =    1
     List of q in the star:
          1   0.000000000   0.000000000   0.000000000

          Dielectric constant in cartesian axis 

          (      14.147436348      -0.000000000       0.000000000 )
          (       0.000000000      14.147436348      -0.000000000 )
          (      -0.000000000      -0.000000000      14.147436348 )

          Effective charges (d Force / dE) in cartesian axis

           atom      1   Si 
      Ex  (       -0.08864        0.00000        0.00000 )
      Ey  (        0.00000       -0.08864        0.00000 )
      Ez  (        0.00000        0.00000       -0.08864 )
           atom      2   Si 
      Ex  (       -0.08864       -0.00000        0.00000 )
      Ey  (        0.00000       -0.08864        0.00000 )
      Ez  (        0.00000        0.00000       -0.08864 )

          Effective charges (d P / du) in cartesian axis 

           atom      1   Si 
      Px  (       -0.08864        0.00000       -0.00000 )
      Py  (        0.00000       -0.08864       -0.00000 )
      Pz  (       -0.00000       -0.00000       -0.08864 )
           atom      2   Si 
      Px  (       -0.08864        0.00000       -0.00000 )
      Py  (        0.00000       -0.08864       -0.00000 )
      Pz  (        0.00000        0.00000       -0.08864 )

     Diagonalizing the dynamical matrix

     q = (    0.000000000   0.000000000   0.000000000 ) 

 **************************************************************************
     freq (    1) =      -0.384769 [THz] =     -12.834502 [cm-1]
     freq (    2) =      -0.384769 [THz] =     -12.834502 [cm-1]
     freq (    3) =      -0.384769 [THz] =     -12.834502 [cm-1]
     freq (    4) =      15.102194 [THz] =     503.754982 [cm-1]
     freq (    5) =      15.102194 [THz] =     503.754982 [cm-1]
     freq (    6) =      15.102194 [THz] =     503.754982 [cm-1]
 **************************************************************************

     Mode symmetry, O_h (m-3m)  point group:

     freq (   1-   3) =        -12.8  [cm-1]   --> T_1u G_15  G_4- I  
     freq (   4-   6) =        503.8  [cm-1]   --> T_2g G_25' G_5+ R  

     Calculation of q =    0.3535534  -0.3535534  -0.3535534

     Subspace diagonalization in iterative solution of the eigenvalue problem:
     a serial algorithm will be used


     G-vector sticks info
     --------------------
     sticks:   dense  smooth     PW     G-vecs:    dense   smooth      PW
     Sum         877     439    163                17261     6183    1459

     Using Slab Decomposition


     Title: 
     phonons of Si mesh                                                         


     bravais-lattice index     =            0
     lattice parameter (alat)  =       7.3077  a.u.
     unit-cell volume          =     275.9486 (a.u.)^3
     number of atoms/cell      =            2
     number of atomic types    =            1
     number of electrons       =         8.00
     number of Kohn-Sham states=            4
     kinetic-energy cutoff     =      30.0000  Ry
     charge density cutoff     =     240.0000  Ry
     Exchange-correlation= PBE
                           (   1   4   3   4   0   0   0)

     celldm(1)=   7.307706  celldm(2)=   0.000000  celldm(3)=   0.000000
     celldm(4)=   0.000000  celldm(5)=   0.000000  celldm(6)=   0.000000

     crystal axes: (cart. coord. in units of alat)
               a(1) = (   0.707107   0.707107   0.000000 )  
               a(2) = (   0.707107   0.000000   0.707107 )  
               a(3) = (   0.000000   0.707107   0.707107 )  

     reciprocal axes: (cart. coord. in units 2 pi/alat)
               b(1) = (  0.707107  0.707107 -0.707107 )  
               b(2) = (  0.707107 -0.707107  0.707107 )  
               b(3) = ( -0.707107  0.707107  0.707107 )  


     PseudoPot. # 1 for Si read from file:
     ./pseudo/Si.pbe-n-rrkjus_psl.1.0.0.UPF
     MD5 check sum: 0b0bb1205258b0d07b9f9672cf965d36
     Pseudo is Ultrasoft + core correction, Zval =  4.0
     Generated using "atomic" code by A. Dal Corso  v.5.1
     Using radial grid of 1141 points,  6 beta functions with: 
                l(1) =   0
                l(2) =   0
                l(3) =   1
                l(4) =   1
                l(5) =   2
                l(6) =   2
     Q(r) pseudized with 0 coefficients 


     atomic species   valence    mass     pseudopotential
        Si             4.00    28.08550     Si( 1.00)

     48 Sym. Ops., with inversion, found



   Cartesian axes

     site n.     atom                  positions (alat units)
         1           Si  tau(   1) = (   0.0000000   0.0000000   0.0000000  )
         2           Si  tau(   2) = (   0.3535534   0.3535534   0.3535534  )

     number of k points=   130

     Number of k-points >= 100: set verbosity='high' to print them.

     Dense  grid:    17261 G-vectors     FFT dimensions: (  40,  40,  40)

     Smooth grid:     6183 G-vectors     FFT dimensions: (  32,  32,  32)

     Estimated max dynamical RAM per process >      57.79 MB

     The potential is recalculated from file :
     ./_ph0/si.save/charge-density

     Starting wfcs are    8 atomic wfcs

     Band Structure Calculation
     Davidson diagonalization with overlap

     ethr =  1.25E-10,  avg # of iterations = 13.0

     total cpu time spent up to now is        4.9 secs

     End of band structure calculation

     Number of k-points >= 100: set verbosity='high' to print the bands.

     highest occupied level (ev):     5.9865

     Writing output data file ./_ph0/si.save/

     phonons of Si mesh                                                         

     bravais-lattice index     =            0
     lattice parameter (alat)  =       7.3077  a.u.
     unit-cell volume          =     275.9486 (a.u.)^3
     number of atoms/cell      =            2
     number of atomic types    =            1
     kinetic-energy cut-off    =      30.0000  Ry
     charge density cut-off    =     240.0000  Ry
     convergence threshold     =      1.0E-16
     beta                      =       0.5000
     number of iterations used =            4
     Exchange-correlation= PBE
                           (   1   4   3   4   0   0   0)


     celldm(1)=    7.30771  celldm(2)=    0.00000  celldm(3)=    0.00000
     celldm(4)=    0.00000  celldm(5)=    0.00000  celldm(6)=    0.00000

     crystal axes: (cart. coord. in units of alat)
               a(1) = (  0.7071  0.7071  0.0000 )  
               a(2) = (  0.7071  0.0000  0.7071 )  
               a(3) = (  0.0000  0.7071  0.7071 )  

     reciprocal axes: (cart. coord. in units 2 pi/alat)
               b(1) = (  0.7071  0.7071 -0.7071 )  
               b(2) = (  0.7071 -0.7071  0.7071 )  
               b(3) = ( -0.7071  0.7071  0.7071 )  


     Atoms inside the unit cell: 

     Cartesian axes

     site n.  atom      mass           positions (alat units)
        1     Si  28.0855   tau(    1) = (    0.00000    0.00000    0.00000  )
        2     Si  28.0855   tau(    2) = (    0.35355    0.35355    0.35355  )

     Computing dynamical matrix for 
                    q = (   0.3535534  -0.3535534  -0.3535534 )

     13 Sym.Ops. (with q -> -q+G )


     G cutoff =  324.6487  (  17261 G-vectors)     FFT grid: ( 40, 40, 40)
     G cutoff =  162.3244  (   6183 G-vectors)  smooth grid: ( 32, 32, 32)
     number of k points=   130

     PseudoPot. # 1 for Si read from file:
     ./pseudo/Si.pbe-n-rrkjus_psl.1.0.0.UPF
     MD5 check sum: 0b0bb1205258b0d07b9f9672cf965d36
     Pseudo is Ultrasoft + core correction, Zval =  4.0
     Generated using "atomic" code by A. Dal Corso  v.5.1
     Using radial grid of 1141 points,  6 beta functions with: 
                l(1) =   0
                l(2) =   0
                l(3) =   1
                l(4) =   1
                l(5) =   2
                l(6) =   2
     Q(r) pseudized with 0 coefficients 



     Atomic displacements:
     There are    4 irreducible representations

     Representation     1      1 modes -  To be done

     Representation     2      1 modes -  To be done

     Representation     3      2 modes -  To be done

     Representation     4      2 modes -  To be done



     Alpha used in Ewald sum =   2.5000
     PHONON       :   1m20.06s CPU   1m21.26s WALL



     Representation #   1 mode #   1

     Self-consistent Calculation

      iter #   1 total cpu time :    82.7 secs   av.it.:   5.1
      thresh= 1.000E-02 alpha_mix =  0.500 |ddv_scf|^2 =  3.133E-06

      iter #   2 total cpu time :    84.6 secs   av.it.:   9.0
      thresh= 1.770E-04 alpha_mix =  0.500 |ddv_scf|^2 =  5.176E-07

      iter #   3 total cpu time :    86.4 secs   av.it.:   8.8
      thresh= 7.194E-05 alpha_mix =  0.500 |ddv_scf|^2 =  1.339E-08

      iter #   4 total cpu time :    88.4 secs   av.it.:   9.1
      thresh= 1.157E-05 alpha_mix =  0.500 |ddv_scf|^2 =  3.282E-11

      iter #   5 total cpu time :    90.4 secs   av.it.:   9.6
      thresh= 5.729E-07 alpha_mix =  0.500 |ddv_scf|^2 =  3.341E-12

      iter #   6 total cpu time :    92.5 secs   av.it.:   9.3
      thresh= 1.828E-07 alpha_mix =  0.500 |ddv_scf|^2 =  8.476E-14

      iter #   7 total cpu time :    94.5 secs   av.it.:   9.3
      thresh= 2.911E-08 alpha_mix =  0.500 |ddv_scf|^2 =  5.507E-16

      iter #   8 total cpu time :    96.6 secs   av.it.:   9.0
      thresh= 2.347E-09 alpha_mix =  0.500 |ddv_scf|^2 =  1.174E-16

      iter #   9 total cpu time :    98.7 secs   av.it.:   9.4
      thresh= 1.084E-09 alpha_mix =  0.500 |ddv_scf|^2 =  2.415E-18

     End of self-consistent calculation

     Convergence has been achieved 


     Representation #   2 mode #   2

     Self-consistent Calculation

      iter #   1 total cpu time :   100.4 secs   av.it.:   6.2
      thresh= 1.000E-02 alpha_mix =  0.500 |ddv_scf|^2 =  4.304E-05

      iter #   2 total cpu time :   102.5 secs   av.it.:   9.1
      thresh= 6.560E-04 alpha_mix =  0.500 |ddv_scf|^2 =  4.107E-05

      iter #   3 total cpu time :   104.4 secs   av.it.:   8.5
      thresh= 6.409E-04 alpha_mix =  0.500 |ddv_scf|^2 =  2.417E-08

      iter #   4 total cpu time :   106.4 secs   av.it.:   9.0
      thresh= 1.555E-05 alpha_mix =  0.500 |ddv_scf|^2 =  1.029E-09

      iter #   5 total cpu time :   108.5 secs   av.it.:   9.2
      thresh= 3.208E-06 alpha_mix =  0.500 |ddv_scf|^2 =  5.286E-12

      iter #   6 total cpu time :   110.6 secs   av.it.:   9.5
      thresh= 2.299E-07 alpha_mix =  0.500 |ddv_scf|^2 =  1.353E-13

      iter #   7 total cpu time :   112.6 secs   av.it.:   9.2
      thresh= 3.678E-08 alpha_mix =  0.500 |ddv_scf|^2 =  9.133E-15

      iter #   8 total cpu time :   114.8 secs   av.it.:  10.0
      thresh= 9.556E-09 alpha_mix =  0.500 |ddv_scf|^2 =  1.793E-16

      iter #   9 total cpu time :   116.7 secs   av.it.:   8.3
      thresh= 1.339E-09 alpha_mix =  0.500 |ddv_scf|^2 =  4.439E-17

     End of self-consistent calculation

     Convergence has been achieved 


     Representation #   3 modes #   3   4

     Self-consistent Calculation

      iter #   1 total cpu time :   120.0 secs   av.it.:   5.5
      thresh= 1.000E-02 alpha_mix =  0.500 |ddv_scf|^2 =  1.119E-07

      iter #   2 total cpu time :   124.5 secs   av.it.:  10.3
      thresh= 3.344E-05 alpha_mix =  0.500 |ddv_scf|^2 =  9.739E-09

      iter #   3 total cpu time :   128.8 secs   av.it.:   9.7
      thresh= 9.869E-06 alpha_mix =  0.500 |ddv_scf|^2 =  1.479E-09

      iter #   4 total cpu time :   133.1 secs   av.it.:   9.9
      thresh= 3.845E-06 alpha_mix =  0.500 |ddv_scf|^2 =  1.091E-12

      iter #   5 total cpu time :   137.5 secs   av.it.:  10.5
      thresh= 1.044E-07 alpha_mix =  0.500 |ddv_scf|^2 =  3.826E-14

      iter #   6 total cpu time :   142.0 secs   av.it.:  10.6
      thresh= 1.956E-08 alpha_mix =  0.500 |ddv_scf|^2 =  1.678E-15

      iter #   7 total cpu time :   146.0 secs   av.it.:  10.5
      thresh= 4.096E-09 alpha_mix =  0.500 |ddv_scf|^2 =  2.684E-17

     End of self-consistent calculation

     Convergence has been achieved 


     Representation #   4 modes #   5   6

     Self-consistent Calculation

      iter #   1 total cpu time :   148.8 secs   av.it.:   5.3
      thresh= 1.000E-02 alpha_mix =  0.500 |ddv_scf|^2 =  4.260E-08

      iter #   2 total cpu time :   152.6 secs   av.it.:  10.0
      thresh= 2.064E-05 alpha_mix =  0.500 |ddv_scf|^2 =  9.338E-09

      iter #   3 total cpu time :   156.4 secs   av.it.:  10.4
      thresh= 9.664E-06 alpha_mix =  0.500 |ddv_scf|^2 =  9.639E-11

      iter #   4 total cpu time :   160.3 secs   av.it.:  10.6
      thresh= 9.818E-07 alpha_mix =  0.500 |ddv_scf|^2 =  1.073E-12

      iter #   5 total cpu time :   164.2 secs   av.it.:  10.7
      thresh= 1.036E-07 alpha_mix =  0.500 |ddv_scf|^2 =  3.551E-14

      iter #   6 total cpu time :   168.0 secs   av.it.:  10.6
      thresh= 1.884E-08 alpha_mix =  0.500 |ddv_scf|^2 =  2.580E-15

      iter #   7 total cpu time :   172.0 secs   av.it.:  10.8
      thresh= 5.080E-09 alpha_mix =  0.500 |ddv_scf|^2 =  2.692E-17

     End of self-consistent calculation

     Convergence has been achieved 

     Number of q in the star =    4
     List of q in the star:
          1   0.353553391  -0.353553391  -0.353553391
          2  -0.353553391   0.353553391  -0.353553391
          3   0.353553391   0.353553391   0.353553391
          4  -0.353553391  -0.353553391   0.353553391

     Diagonalizing the dynamical matrix

     q = (    0.353553391  -0.353553391  -0.353553391 ) 

 **************************************************************************
     freq (    1) =       3.303450 [THz] =     110.191244 [cm-1]
     freq (    2) =       3.303450 [THz] =     110.191244 [cm-1]
     freq (    3) =      11.111638 [THz] =     370.644363 [cm-1]
     freq (    4) =      11.983449 [THz] =     399.724828 [cm-1]
     freq (    5) =      14.318198 [THz] =     477.603676 [cm-1]
     freq (    6) =      14.318198 [THz] =     477.603676 [cm-1]
 **************************************************************************

     Calculation of q =    0.0000000   0.0000000  -0.7071068

     G-vector sticks info
     --------------------
     sticks:   dense  smooth     PW     G-vecs:    dense   smooth      PW
     Sum         877     439    163                17261     6183    1411

     Using Slab Decomposition


     Title: 
     phonons of Si mesh                                                         


     bravais-lattice index     =            0
     lattice parameter (alat)  =       7.3077  a.u.
     unit-cell volume          =     275.9486 (a.u.)^3
     number of atoms/cell      =            2
     number of atomic types    =            1
     number of electrons       =         8.00
     number of Kohn-Sham states=            4
     kinetic-energy cutoff     =      30.0000  Ry
     charge density cutoff     =     240.0000  Ry
     Exchange-correlation= PBE
                           (   1   4   3   4   0   0   0)

     celldm(1)=   7.307706  celldm(2)=   0.000000  celldm(3)=   0.000000
     celldm(4)=   0.000000  celldm(5)=   0.000000  celldm(6)=   0.000000

     crystal axes: (cart. coord. in units of alat)
               a(1) = (   0.707107   0.707107   0.000000 )  
               a(2) = (   0.707107   0.000000   0.707107 )  
               a(3) = (   0.000000   0.707107   0.707107 )  

     reciprocal axes: (cart. coord. in units 2 pi/alat)
               b(1) = (  0.707107  0.707107 -0.707107 )  
               b(2) = (  0.707107 -0.707107  0.707107 )  
               b(3) = ( -0.707107  0.707107  0.707107 )  


     PseudoPot. # 1 for Si read from file:
     ./pseudo/Si.pbe-n-rrkjus_psl.1.0.0.UPF
     MD5 check sum: 0b0bb1205258b0d07b9f9672cf965d36
     Pseudo is Ultrasoft + core correction, Zval =  4.0
     Generated using "atomic" code by A. Dal Corso  v.5.1
     Using radial grid of 1141 points,  6 beta functions with: 
                l(1) =   0
                l(2) =   0
                l(3) =   1
                l(4) =   1
                l(5) =   2
                l(6) =   2
     Q(r) pseudized with 0 coefficients 


     atomic species   valence    mass     pseudopotential
        Si             4.00    28.08550     Si( 1.00)

     48 Sym. Ops., with inversion, found



   Cartesian axes

     site n.     atom                  positions (alat units)
         1           Si  tau(   1) = (   0.0000000   0.0000000   0.0000000  )
         2           Si  tau(   2) = (   0.3535534   0.3535534   0.3535534  )

     number of k points=   118

     Number of k-points >= 100: set verbosity='high' to print them.

     Dense  grid:    17261 G-vectors     FFT dimensions: (  40,  40,  40)

     Smooth grid:     6183 G-vectors     FFT dimensions: (  32,  32,  32)

     Estimated max dynamical RAM per process >      57.80 MB

     The potential is recalculated from file :
     ./_ph0/si.save/charge-density

     Starting wfcs are    8 atomic wfcs

     Band Structure Calculation
     Davidson diagonalization with overlap

     ethr =  1.25E-10,  avg # of iterations = 12.8

     total cpu time spent up to now is        9.3 secs

     End of band structure calculation

     Number of k-points >= 100: set verbosity='high' to print the bands.

     highest occupied level (ev):     5.9865

     Writing output data file ./_ph0/si.save/

     phonons of Si mesh                                                         

     bravais-lattice index     =            0
     lattice parameter (alat)  =       7.3077  a.u.
     unit-cell volume          =     275.9486 (a.u.)^3
     number of atoms/cell      =            2
     number of atomic types    =            1
     kinetic-energy cut-off    =      30.0000  Ry
     charge density cut-off    =     240.0000  Ry
     convergence threshold     =      1.0E-16
     beta                      =       0.5000
     number of iterations used =            4
     Exchange-correlation= PBE
                           (   1   4   3   4   0   0   0)


     celldm(1)=    7.30771  celldm(2)=    0.00000  celldm(3)=    0.00000
     celldm(4)=    0.00000  celldm(5)=    0.00000  celldm(6)=    0.00000

     crystal axes: (cart. coord. in units of alat)
               a(1) = (  0.7071  0.7071  0.0000 )  
               a(2) = (  0.7071  0.0000  0.7071 )  
               a(3) = (  0.0000  0.7071  0.7071 )  

     reciprocal axes: (cart. coord. in units 2 pi/alat)
               b(1) = (  0.7071  0.7071 -0.7071 )  
               b(2) = (  0.7071 -0.7071  0.7071 )  
               b(3) = ( -0.7071  0.7071  0.7071 )  


     Atoms inside the unit cell: 

     Cartesian axes

     site n.  atom      mass           positions (alat units)
        1     Si  28.0855   tau(    1) = (    0.00000    0.00000    0.00000  )
        2     Si  28.0855   tau(    2) = (    0.35355    0.35355    0.35355  )

     Computing dynamical matrix for 
                    q = (   0.0000000   0.0000000  -0.7071068 )

     17 Sym.Ops. (with q -> -q+G )


     G cutoff =  324.6487  (  17261 G-vectors)     FFT grid: ( 40, 40, 40)
     G cutoff =  162.3244  (   6183 G-vectors)  smooth grid: ( 32, 32, 32)
     number of k points=   118

     PseudoPot. # 1 for Si read from file:
     ./pseudo/Si.pbe-n-rrkjus_psl.1.0.0.UPF
     MD5 check sum: 0b0bb1205258b0d07b9f9672cf965d36
     Pseudo is Ultrasoft + core correction, Zval =  4.0
     Generated using "atomic" code by A. Dal Corso  v.5.1
     Using radial grid of 1141 points,  6 beta functions with: 
                l(1) =   0
                l(2) =   0
                l(3) =   1
                l(4) =   1
                l(5) =   2
                l(6) =   2
     Q(r) pseudized with 0 coefficients 



     Atomic displacements:
     There are    3 irreducible representations

     Representation     1      2 modes -  To be done

     Representation     2      2 modes -  To be done

     Representation     3      2 modes -  To be done



     Alpha used in Ewald sum =   2.5000
     PHONON       :   2m56.75s CPU   2m59.02s WALL



     Representation #   1 modes #   1   2

     Self-consistent Calculation

      iter #   1 total cpu time :   181.2 secs   av.it.:   4.9
      thresh= 1.000E-02 alpha_mix =  0.500 |ddv_scf|^2 =  3.824E-08

      iter #   2 total cpu time :   184.4 secs   av.it.:   9.4
      thresh= 1.955E-05 alpha_mix =  0.500 |ddv_scf|^2 =  8.713E-09

      iter #   3 total cpu time :   187.9 secs   av.it.:   9.9
      thresh= 9.334E-06 alpha_mix =  0.500 |ddv_scf|^2 =  2.127E-11

      iter #   4 total cpu time :   192.0 secs   av.it.:  10.7
      thresh= 4.612E-07 alpha_mix =  0.500 |ddv_scf|^2 =  2.750E-13

      iter #   5 total cpu time :   196.0 secs   av.it.:  10.2
      thresh= 5.244E-08 alpha_mix =  0.500 |ddv_scf|^2 =  3.647E-14

      iter #   6 total cpu time :   199.4 secs   av.it.:  10.2
      thresh= 1.910E-08 alpha_mix =  0.500 |ddv_scf|^2 =  1.821E-16

      iter #   7 total cpu time :   202.9 secs   av.it.:  10.5
      thresh= 1.350E-09 alpha_mix =  0.500 |ddv_scf|^2 =  7.923E-19

     End of self-consistent calculation

     Convergence has been achieved 


     Representation #   2 modes #   3   4

     Self-consistent Calculation

      iter #   1 total cpu time :   205.6 secs   av.it.:   6.1
      thresh= 1.000E-02 alpha_mix =  0.500 |ddv_scf|^2 =  2.105E-06

      iter #   2 total cpu time :   209.5 secs   av.it.:  10.1
      thresh= 1.451E-04 alpha_mix =  0.500 |ddv_scf|^2 =  6.617E-07

      iter #   3 total cpu time :   213.3 secs   av.it.:   9.8
      thresh= 8.135E-05 alpha_mix =  0.500 |ddv_scf|^2 =  4.274E-09

      iter #   4 total cpu time :   217.2 secs   av.it.:  10.0
      thresh= 6.537E-06 alpha_mix =  0.500 |ddv_scf|^2 =  9.056E-11

      iter #   5 total cpu time :   221.1 secs   av.it.:  10.1
      thresh= 9.516E-07 alpha_mix =  0.500 |ddv_scf|^2 =  8.775E-13

      iter #   6 total cpu time :   224.5 secs   av.it.:  10.5
      thresh= 9.367E-08 alpha_mix =  0.500 |ddv_scf|^2 =  4.426E-14

      iter #   7 total cpu time :   228.0 secs   av.it.:  10.4
      thresh= 2.104E-08 alpha_mix =  0.500 |ddv_scf|^2 =  3.320E-15

      iter #   8 total cpu time :   231.4 secs   av.it.:  10.6
      thresh= 5.762E-09 alpha_mix =  0.500 |ddv_scf|^2 =  3.025E-17

     End of self-consistent calculation

     Convergence has been achieved 


     Representation #   3 modes #   5   6

     Self-consistent Calculation

      iter #   1 total cpu time :   234.0 secs   av.it.:   5.7
      thresh= 1.000E-02 alpha_mix =  0.500 |ddv_scf|^2 =  3.698E-07

      iter #   2 total cpu time :   237.4 secs   av.it.:  10.1
      thresh= 6.081E-05 alpha_mix =  0.500 |ddv_scf|^2 =  1.175E-08

      iter #   3 total cpu time :   240.8 secs   av.it.:   9.5
      thresh= 1.084E-05 alpha_mix =  0.500 |ddv_scf|^2 =  2.589E-09

      iter #   4 total cpu time :   244.3 secs   av.it.:   9.8
      thresh= 5.088E-06 alpha_mix =  0.500 |ddv_scf|^2 =  1.215E-12

      iter #   5 total cpu time :   247.9 secs   av.it.:  10.0
      thresh= 1.102E-07 alpha_mix =  0.500 |ddv_scf|^2 =  6.110E-14

      iter #   6 total cpu time :   251.4 secs   av.it.:   9.9
      thresh= 2.472E-08 alpha_mix =  0.500 |ddv_scf|^2 =  1.096E-15

      iter #   7 total cpu time :   255.1 secs   av.it.:  10.3
      thresh= 3.311E-09 alpha_mix =  0.500 |ddv_scf|^2 =  3.016E-17

     End of self-consistent calculation

     Convergence has been achieved 

     Number of q in the star =    3
     List of q in the star:
          1   0.000000000   0.000000000  -0.707106781
          2   0.000000000  -0.707106781   0.000000000
          3  -0.707106781   0.000000000   0.000000000

     Diagonalizing the dynamical matrix

     q = (    0.000000000   0.000000000  -0.707106781 ) 

 **************************************************************************
     freq (    1) =       4.363548 [THz] =     145.552286 [cm-1]
     freq (    2) =       4.363548 [THz] =     145.552286 [cm-1]
     freq (    3) =      12.026543 [THz] =     401.162286 [cm-1]
     freq (    4) =      12.026543 [THz] =     401.162286 [cm-1]
     freq (    5) =      13.398755 [THz] =     446.934362 [cm-1]
     freq (    6) =      13.398755 [THz] =     446.934362 [cm-1]
 **************************************************************************

     init_run     :      0.72s CPU      0.75s WALL (       2 calls)
     electrons    :      8.45s CPU      8.51s WALL (       2 calls)

     Called by init_run:
     wfcinit      :      0.00s CPU      0.00s WALL (       2 calls)
     potinit      :      0.06s CPU      0.07s WALL (       2 calls)
     hinit0       :      0.55s CPU      0.55s WALL (       2 calls)

     Called by electrons:
     c_bands      :      8.45s CPU      8.51s WALL (       2 calls)
     v_of_rho     :      0.10s CPU      0.10s WALL (       3 calls)
     newd         :      0.11s CPU      0.17s WALL (       3 calls)

     Called by c_bands:
     init_us_2    :      1.05s CPU      1.07s WALL (    5516 calls)
     cegterg      :      7.14s CPU      7.18s WALL (     248 calls)

     Called by *egterg:
     cdiaghg      :      0.15s CPU      0.15s WALL (    3452 calls)
     h_psi        :    125.13s CPU    126.44s WALL (   88747 calls)
     s_psi        :     32.91s CPU     33.23s WALL (  181381 calls)
     g_psi        :      0.03s CPU      0.03s WALL (    3204 calls)

     Called by h_psi:
     h_psi:calbec :     14.51s CPU     14.66s WALL (   88747 calls)
     vloc_psi     :     93.99s CPU     94.99s WALL (   88747 calls)
     add_vuspsi   :     16.10s CPU     16.27s WALL (   88747 calls)

     General routines
     calbec       :     33.38s CPU     33.74s WALL (  203936 calls)
     fft          :      3.92s CPU      4.00s WALL (    3014 calls)
     ffts         :      0.25s CPU      0.26s WALL (    1496 calls)
     fftw         :     94.40s CPU     95.44s WALL (  751370 calls)
     interpolate  :      0.50s CPU      0.55s WALL (     332 calls)
     davcio       :      0.88s CPU      1.16s WALL (   35513 calls)

     Parallel routines

     PHONON       :   4m12.12s CPU   4m15.25s WALL

     INITIALIZATION: 
     phq_setup    :      0.26s CPU      0.27s WALL (       3 calls)
     phq_init     :      7.27s CPU      7.31s WALL (       3 calls)

     phq_init     :      7.27s CPU      7.31s WALL (       3 calls)
     set_drhoc    :      1.42s CPU      1.42s WALL (       9 calls)
     init_vloc    :      0.01s CPU      0.01s WALL (       3 calls)
     init_us_1    :      0.81s CPU      0.81s WALL (       3 calls)
     newd         :      0.11s CPU      0.17s WALL (       3 calls)
     dvanqq       :      1.88s CPU      1.88s WALL (       3 calls)
     drho         :      2.98s CPU      3.00s WALL (       3 calls)

     DYNAMICAL MATRIX:
     dynmat0      :      1.27s CPU      1.29s WALL (       3 calls)
     phqscf       :    207.34s CPU    209.83s WALL (       3 calls)
     dynmatrix    :      0.00s CPU      0.00s WALL (       3 calls)

     phqscf       :    207.34s CPU    209.83s WALL (       3 calls)
     solve_linter :    204.21s CPU    206.63s WALL (       9 calls)
     drhodv       :      0.90s CPU      0.92s WALL (       9 calls)

     dynmat0      :      1.27s CPU      1.29s WALL (       3 calls)
     dynmat_us    :      0.28s CPU      0.29s WALL (       3 calls)
     d2ionq       :      0.02s CPU      0.02s WALL (       3 calls)
     dynmatcc     :      0.97s CPU      0.97s WALL (       3 calls)

     dynmat_us    :      0.28s CPU      0.29s WALL (       3 calls)
     addusdynmat  :      0.00s CPU      0.00s WALL (       3 calls)

     phqscf       :    207.34s CPU    209.83s WALL (       3 calls)
     solve_linter :    204.21s CPU    206.63s WALL (       9 calls)

     solve_linter :    204.21s CPU    206.63s WALL (       9 calls)
     dvqpsi_us    :      2.92s CPU      2.97s WALL (    1092 calls)
     ortho        :      3.28s CPU      3.32s WALL (    7500 calls)
     cgsolve      :    171.75s CPU    173.51s WALL (    7500 calls)
     incdrhoscf   :     12.17s CPU     12.27s WALL (    7500 calls)
     addusddens   :      7.67s CPU      7.67s WALL (      77 calls)
     vpsifft      :      7.44s CPU      7.57s WALL (    5886 calls)
     dv_of_drho   :      2.86s CPU      2.91s WALL (     156 calls)
     mix_pot      :      0.34s CPU      0.67s WALL (      75 calls)
     psymdvscf    :      4.63s CPU      4.66s WALL (      68 calls)
     newdq        :     10.58s CPU     10.61s WALL (      75 calls)
     adddvscf     :      1.41s CPU      1.43s WALL (    6408 calls)
     drhodvus     :      0.02s CPU      0.02s WALL (       9 calls)

     dvqpsi_us    :      2.92s CPU      2.97s WALL (    1092 calls)
     dvqpsi_us_on :      1.23s CPU      1.24s WALL (    1092 calls)

     cgsolve      :    171.75s CPU    173.51s WALL (    7500 calls)
     ch_psi       :    167.91s CPU    169.62s WALL (   85047 calls)

     ch_psi       :    167.91s CPU    169.62s WALL (   85047 calls)
     h_psi        :    125.13s CPU    126.44s WALL (   88747 calls)
     last         :     33.06s CPU     33.37s WALL (   85047 calls)

     h_psi        :    125.13s CPU    126.44s WALL (   88747 calls)
     add_vuspsi   :     16.10s CPU     16.27s WALL (   88747 calls)

     incdrhoscf   :     12.17s CPU     12.27s WALL (    7500 calls)
     addusdbec    :      1.68s CPU      1.69s WALL (    8418 calls)

     drhodvus     :      0.02s CPU      0.02s WALL (       9 calls)

      General routines
     calbec       :     33.38s CPU     33.74s WALL (  203936 calls)
     fft          :      3.92s CPU      4.00s WALL (    3014 calls)
     ffts         :      0.25s CPU      0.26s WALL (    1496 calls)
     fftw         :     94.40s CPU     95.44s WALL (  751370 calls)
     davcio       :      0.88s CPU      1.16s WALL (   35513 calls)
     write_rec    :      0.08s CPU      0.20s WALL (      84 calls)


     PHONON       :   4m12.12s CPU   4m15.25s WALL


   This run was terminated on:  16: 5:56  13May2023            

=------------------------------------------------------------------------------=
   JOB DONE.
=------------------------------------------------------------------------------=
