
     Program Q2R v.6.8 starts on 13May2023 at 16:16: 5 

     This program is part of the open-source Quantum ESPRESSO suite
     for quantum simulation of materials; please cite
         "P. Giannozzi et al., J. Phys.:Condens. Matter 21 395502 (2009);
         "P. Giannozzi et al., J. Phys.:Condens. Matter 29 465901 (2017);
         "P. Giannozzi et al., J. Chem. Phys. 152 154105 (2020);
          URL http://www.quantum-espresso.org", 
     in publications or presentations arising from this work. More details at
     http://www.quantum-espresso.org/quote

     Parallel version (MPI), running on     1 processors

     MPI processes distributed on     1 nodes
     1812 MiB available memory on the printing compute node when the environment starts


     reading grid info from file si.dyn0    
  reading force constants from file si.dyn1
 macroscopic fields = T
  14.14744   0.00000  -0.00000
  -0.00000  14.14744  -0.00000
   0.00000  -0.00000  14.14744
  na=            1
  -0.08864   0.00000   0.00000
   0.00000  -0.08864   0.00000
   0.00000   0.00000  -0.08864
  na=            2
  -0.08864  -0.00000   0.00000
   0.00000  -0.08864   0.00000
   0.00000   0.00000  -0.08864
     Message from routine volume:
     axis vectors are left-handed
     Message from routine volume:
     axis vectors are left-handed
  nqs=            1
 q=   0.00000000  0.00000000  0.00000000
  reading force constants from file si.dyn2
  nqs=            4
 q=   0.35355339 -0.35355339 -0.35355339
 q=  -0.35355339  0.35355339 -0.35355339
 q=   0.35355339  0.35355339  0.35355339
 q=  -0.35355339 -0.35355339  0.35355339
  reading force constants from file si.dyn3
  nqs=            3
 q=   0.00000000  0.00000000 -0.70710678
 q=   0.00000000 -0.70710678  0.00000000
 q=  -0.70710678  0.00000000  0.00000000

      q-space grid ok, #points =    8

      fft-check success (sum of imaginary terms < 10^-12)

     Q2R          :      0.00s CPU      0.00s WALL


   This run was terminated on:  16:16: 5  13May2023            

=------------------------------------------------------------------------------=
   JOB DONE.
=------------------------------------------------------------------------------=
