
     Program BANDS v.6.8 starts on 13May2023 at 15: 8:52 

     This program is part of the open-source Quantum ESPRESSO suite
     for quantum simulation of materials; please cite
         "P. Giannozzi et al., J. Phys.:Condens. Matter 21 395502 (2009);
         "P. Giannozzi et al., J. Phys.:Condens. Matter 29 465901 (2017);
         "P. Giannozzi et al., J. Chem. Phys. 152 154105 (2020);
          URL http://www.quantum-espresso.org", 
     in publications or presentations arising from this work. More details at
     http://www.quantum-espresso.org/quote

     Parallel version (MPI), running on     1 processors

     MPI processes distributed on     1 nodes
     2985 MiB available memory on the printing compute node when the environment starts


     Reading xml data from directory:

     ./si.save/
     Message from routine volume:
     axis vectors are left-handed

     IMPORTANT: XC functional enforced from input :
     Exchange-correlation= PBE
                           (   1   4   3   4   0   0   0)
     Any further DFT definition will be discarded
     Please, verify this is what you really want


     G-vector sticks info
     --------------------
     sticks:   dense  smooth     PW     G-vecs:    dense   smooth      PW
     Sum         877     439    139                17261     6183    1067

     Using Slab Decomposition

     Reading collected, re-writing distributed wavefunctions
     high-symmetry point:  0.3536-0.3536 0.3536   x coordinate   0.0000
     high-symmetry point:  0.0000 0.0000 0.0000   x coordinate   0.6124
     high-symmetry point:  0.0000-0.7071 0.0000   x coordinate   1.3195
     high-symmetry point:  0.1768-0.7071 0.1768   x coordinate   1.5695
     high-symmetry point:  0.0000 0.0000 0.0000   x coordinate   2.3195

     Plottable bands (eV) written to file si_bands.dat.gnu
     Bands written to file si_bands.dat

 **************************************************************************

                    xk=(   0.35355,  -0.35355,   0.35355  )

     zone border point and non-symmorphic group 
     symmetry decomposition not available

 **************************************************************************

 **************************************************************************

                    xk=(   0.33588,  -0.33588,   0.33588  )

     point group C_3v (3m)  
     there are  3 classes
     the character table:

       E     2C3   3s_v 
A_1    1.00  1.00  1.00
A_2    1.00  1.00 -1.00
E      2.00 -1.00  0.00

     the symmetry operations in each class and the name of the first element:

     E        1
                                                                 
     2C3      2    3
                                                                 
     3s_v     4    5    6
                                                                 

     Band symmetry, C_3v (3m)   point group:

     e(  1 -  1) =     -3.58841  eV     1   --> A_1  L_1       
     e(  2 -  2) =     -0.83797  eV     1   --> A_1  L_1       
     e(  3 -  4) =      4.80955  eV     2   --> E    L_3       
     e(  5 -  5) =      7.45444  eV     1   --> A_1  L_1       
     e(  6 -  7) =      9.34149  eV     2   --> E    L_3       
     e(  8 -  8) =     13.70067  eV     1   --> A_1  L_1       
     e(  9 - 10) =     16.23028  eV     2   --> E    L_3       

 **************************************************************************

 **************************************************************************

                    xk=(   0.31820,  -0.31820,   0.31820  )

     Band symmetry, C_3v (3m)   point group:

     e(  1 -  1) =     -3.68382  eV     1   --> A_1  L_1       
     e(  2 -  2) =     -0.69690  eV     1   --> A_1  L_1       
     e(  3 -  4) =      4.82291  eV     2   --> E    L_3       
     e(  5 -  5) =      7.46993  eV     1   --> A_1  L_1       
     e(  6 -  7) =      9.35583  eV     2   --> E    L_3       
     e(  8 -  8) =     13.72248  eV     1   --> A_1  L_1       
     e(  9 - 10) =     15.79676  eV     2   --> E    L_3       

 **************************************************************************

 **************************************************************************

                    xk=(   0.30052,  -0.30052,   0.30052  )

     Band symmetry, C_3v (3m)   point group:

     e(  1 -  1) =     -3.82404  eV     1   --> A_1  L_1       
     e(  2 -  2) =     -0.48070  eV     1   --> A_1  L_1       
     e(  3 -  4) =      4.84511  eV     2   --> E    L_3       
     e(  5 -  5) =      7.49561  eV     1   --> A_1  L_1       
     e(  6 -  7) =      9.37846  eV     2   --> E    L_3       
     e(  8 -  8) =     13.75590  eV     1   --> A_1  L_1       
     e(  9 - 10) =     15.35486  eV     2   --> E    L_3       

 **************************************************************************

 **************************************************************************

                    xk=(   0.28284,  -0.28284,   0.28284  )

     Band symmetry, C_3v (3m)   point group:

     e(  1 -  1) =     -3.99180  eV     1   --> A_1  L_1       
     e(  2 -  2) =     -0.20681  eV     1   --> A_1  L_1       
     e(  3 -  4) =      4.87616  eV     2   --> E    L_3       
     e(  5 -  5) =      7.53148  eV     1   --> A_1  L_1       
     e(  6 -  7) =      9.40742  eV     2   --> E    L_3       
     e(  8 -  8) =     13.79501  eV     1   --> A_1  L_1       
     e(  9 - 10) =     14.93071  eV     2   --> E    L_3       

 **************************************************************************

 **************************************************************************

                    xk=(   0.26517,  -0.26517,   0.26517  )

     Band symmetry, C_3v (3m)   point group:

     e(  1 -  1) =     -4.17346  eV     1   --> A_1  L_1       
     e(  2 -  2) =      0.11084  eV     1   --> A_1  L_1       
     e(  3 -  4) =      4.91597  eV     2   --> E    L_3       
     e(  5 -  5) =      7.57730  eV     1   --> A_1  L_1       
     e(  6 -  7) =      9.43978  eV     2   --> E    L_3       
     e(  8 -  8) =     13.82658  eV     1   --> A_1  L_1       
     e(  9 - 10) =     14.53358  eV     2   --> E    L_3       

 **************************************************************************

 **************************************************************************

                    xk=(   0.24749,  -0.24749,   0.24749  )

     Band symmetry, C_3v (3m)   point group:

     e(  1 -  1) =     -4.35952  eV     1   --> A_1  L_1       
     e(  2 -  2) =      0.46239  eV     1   --> A_1  L_1       
     e(  3 -  4) =      4.96442  eV     2   --> E    L_3       
     e(  5 -  5) =      7.63278  eV     1   --> A_1  L_1       
     e(  6 -  7) =      9.47143  eV     2   --> E    L_3       
     e(  8 -  8) =     13.82073  eV     1   --> A_1  L_1       
     e(  9 - 10) =     14.16988  eV     2   --> E    L_3       

 **************************************************************************

 **************************************************************************

                    xk=(   0.22981,  -0.22981,   0.22981  )

     Band symmetry, C_3v (3m)   point group:

     e(  1 -  1) =     -4.54358  eV     1   --> A_1  L_1       
     e(  2 -  2) =      0.84098  eV     1   --> A_1  L_1       
     e(  3 -  4) =      5.02134  eV     2   --> E    L_3       
     e(  5 -  5) =      7.69758  eV     1   --> A_1  L_1       
     e(  6 -  7) =      9.49721  eV     2   --> E    L_3       
     e(  8 -  8) =     13.72076  eV     1   --> A_1  L_1       
     e(  9 - 10) =     13.84616  eV     2   --> E    L_3       

 **************************************************************************

 **************************************************************************

                    xk=(   0.21213,  -0.21213,   0.21213  )

     Band symmetry, C_3v (3m)   point group:

     e(  1 -  1) =     -4.72140  eV     1   --> A_1  L_1       
     e(  2 -  2) =      1.24174  eV     1   --> A_1  L_1       
     e(  3 -  4) =      5.08644  eV     2   --> E    L_3       
     e(  5 -  5) =      7.77117  eV     1   --> A_1  L_1       
     e(  6 -  7) =      9.51083  eV     2   --> E    L_3       
     e(  8 -  8) =     13.48163  eV     1   --> A_1  L_1       
     e(  9 - 10) =     13.56921  eV     2   --> E    L_3       

 **************************************************************************

 **************************************************************************

                    xk=(   0.19445,  -0.19445,   0.19445  )

     Band symmetry, C_3v (3m)   point group:

     e(  1 -  1) =     -4.89012  eV     1   --> A_1  L_1       
     e(  2 -  2) =      1.66101  eV     1   --> A_1  L_1       
     e(  3 -  4) =      5.15931  eV     2   --> E    L_3       
     e(  5 -  5) =      7.85282  eV     1   --> A_1  L_1       
     e(  6 -  7) =      9.50554  eV     2   --> E    L_3       
     e(  8 -  8) =     13.13395  eV     1   --> A_1  L_1       
     e(  9 - 10) =     13.34599  eV     2   --> E    L_3       

 **************************************************************************

 **************************************************************************

                    xk=(   0.17678,  -0.17678,   0.17678  )

     Band symmetry, C_3v (3m)   point group:

     e(  1 -  1) =     -5.04776  eV     1   --> A_1  L_1       
     e(  2 -  2) =      2.09576  eV     1   --> A_1  L_1       
     e(  3 -  4) =      5.23938  eV     2   --> E    L_3       
     e(  5 -  5) =      7.94154  eV     1   --> A_1  L_1       
     e(  6 -  7) =      9.47534  eV     2   --> E    L_3       
     e(  8 -  8) =     12.73049  eV     1   --> A_1  L_1       
     e(  9 - 10) =     13.18259  eV     2   --> E    L_3       

 **************************************************************************

 **************************************************************************

                    xk=(   0.15910,  -0.15910,   0.15910  )

     Band symmetry, C_3v (3m)   point group:

     e(  1 -  1) =     -5.19291  eV     1   --> A_1  L_1       
     e(  2 -  2) =      2.54320  eV     1   --> A_1  L_1       
     e(  3 -  4) =      5.32574  eV     2   --> E    L_3       
     e(  5 -  5) =      8.03602  eV     1   --> A_1  L_1       
     e(  6 -  7) =      9.41638  eV     2   --> E    L_3       
     e(  8 -  8) =     12.30052  eV     1   --> A_1  L_1       
     e(  9 - 10) =     13.08209  eV     2   --> E    L_3       

 **************************************************************************

 **************************************************************************

                    xk=(   0.14142,  -0.14142,   0.14142  )

     Band symmetry, C_3v (3m)   point group:

     e(  1 -  1) =     -5.32456  eV     1   --> A_1  L_1       
     e(  2 -  2) =      3.00053  eV     1   --> A_1  L_1       
     e(  3 -  4) =      5.41725  eV     2   --> E    L_3       
     e(  5 -  5) =      8.13444  eV     1   --> A_1  L_1       
     e(  6 -  7) =      9.32901  eV     2   --> E    L_3       
     e(  8 -  8) =     11.85719  eV     1   --> A_1  L_1       
     e(  9 - 10) =     13.04412  eV     2   --> E    L_3       

 **************************************************************************

 **************************************************************************

                    xk=(   0.12374,  -0.12374,   0.12374  )

     Band symmetry, C_3v (3m)   point group:

     e(  1 -  1) =     -5.44196  eV     1   --> A_1  L_1       
     e(  2 -  2) =      3.46434  eV     1   --> A_1  L_1       
     e(  3 -  4) =      5.51233  eV     2   --> E    L_3       
     e(  5 -  5) =      8.23444  eV     1   --> A_1  L_1       
     e(  6 -  7) =      9.21767  eV     2   --> E    L_3       
     e(  8 -  8) =     11.40727  eV     1   --> A_1  L_1       
     e(  9 - 10) =     13.06313  eV     2   --> E    L_3       

 **************************************************************************

 **************************************************************************

                    xk=(   0.10607,  -0.10607,   0.10607  )

     Band symmetry, C_3v (3m)   point group:

     e(  1 -  1) =     -5.54457  eV     1   --> A_1  L_1       
     e(  2 -  2) =      3.93040  eV     1   --> A_1  L_1       
     e(  3 -  4) =      5.60861  eV     2   --> E    L_3       
     e(  5 -  5) =      8.33274  eV     1   --> A_1  L_1       
     e(  6 -  7) =      9.09017  eV     2   --> E    L_3       
     e(  8 -  8) =     10.95611  eV     1   --> A_1  L_1       
     e(  9 - 10) =     13.12973  eV     2   --> E    L_3       

 **************************************************************************

 **************************************************************************

                    xk=(   0.08839,  -0.08839,   0.08839  )

     Band symmetry, C_3v (3m)   point group:

     e(  1 -  1) =     -5.63196  eV     1   --> A_1  L_1       
     e(  2 -  2) =      4.39267  eV     1   --> A_1  L_1       
     e(  3 -  4) =      5.70315  eV     2   --> E    L_3       
     e(  5 -  5) =      8.42490  eV     1   --> A_1  L_1       
     e(  6 -  7) =      8.95629  eV     2   --> E    L_3       
     e(  8 -  8) =     10.51030  eV     1   --> A_1  L_1       
     e(  9 - 10) =     13.23196  eV     2   --> E    L_3       

 **************************************************************************

 **************************************************************************

                    xk=(   0.07071,  -0.07071,   0.07071  )

     Band symmetry, C_3v (3m)   point group:

     e(  1 -  1) =     -5.70383  eV     1   --> A_1  L_1       
     e(  2 -  2) =      4.84187  eV     1   --> A_1  L_1       
     e(  3 -  4) =      5.79211  eV     2   --> E    L_3       
     e(  5 -  5) =      8.50471  eV     1   --> A_1  L_1       
     e(  6 -  7) =      8.82643  eV     2   --> E    L_3       
     e(  8 -  8) =     10.08074  eV     1   --> A_1  L_1       
     e(  9 - 10) =     13.35546  eV     2   --> E    L_3       

 **************************************************************************

 **************************************************************************

                    xk=(   0.05303,  -0.05303,   0.05303  )

     Band symmetry, C_3v (3m)   point group:

     e(  1 -  1) =     -5.75995  eV     1   --> A_1  L_1       
     e(  2 -  2) =      5.26229  eV     1   --> A_1  L_1       
     e(  3 -  4) =      5.87037  eV     2   --> E    L_3       
     e(  5 -  5) =      8.56260  eV     1   --> A_1  L_1       
     e(  6 -  7) =      8.71089  eV     2   --> E    L_3       
     e(  8 -  8) =      9.68734  eV     1   --> A_1  L_1       
     e(  9 - 10) =     13.48336  eV     2   --> E    L_3       

 **************************************************************************

 **************************************************************************

                    xk=(   0.03536,  -0.03536,   0.03536  )

     Band symmetry, C_3v (3m)   point group:

     e(  1 -  1) =     -5.80014  eV     1   --> A_1  L_1       
     e(  2 -  2) =      5.62671  eV     1   --> A_1  L_1       
     e(  3 -  4) =      5.93239  eV     2   --> E    L_3       
     e(  5 -  5) =      8.58457  eV     1   --> A_1  L_1       
     e(  6 -  7) =      8.61944  eV     2   --> E    L_3       
     e(  8 -  8) =      9.36652  eV     1   --> A_1  L_1       
     e(  9 - 10) =     13.59705  eV     2   --> E    L_3       

 **************************************************************************

 **************************************************************************

                    xk=(   0.01768,  -0.01768,   0.01768  )

     Band symmetry, C_3v (3m)   point group:

     e(  1 -  1) =     -5.82430  eV     1   --> A_1  L_1       
     e(  2 -  2) =      5.88832  eV     1   --> A_1  L_1       
     e(  3 -  4) =      5.97252  eV     2   --> E    L_3       
     e(  5 -  6) =      8.56055  eV     2   --> E    L_3       
     e(  7 -  7) =      8.56291  eV     1   --> A_1  L_1       
     e(  8 -  8) =      9.16783  eV     1   --> A_1  L_1       
     e(  9 - 10) =     13.67661  eV     2   --> E    L_3       

 **************************************************************************

 **************************************************************************

                    xk=(   0.00000,   0.00000,   0.00000  )

     point group O_h (m-3m) 
     there are 10 classes
     the character table:

       E     8C3   3C2   6C4   6C2'  i     8S6   3s_h  6S4   6s_d 
A_1g   1.00  1.00  1.00  1.00  1.00  1.00  1.00  1.00  1.00  1.00
A_2g   1.00  1.00  1.00 -1.00 -1.00  1.00  1.00  1.00 -1.00 -1.00
E_g    2.00 -1.00  2.00  0.00  0.00  2.00 -1.00  2.00  0.00  0.00
T_1g   3.00  0.00 -1.00  1.00 -1.00  3.00  0.00 -1.00  1.00 -1.00
T_2g   3.00  0.00 -1.00 -1.00  1.00  3.00  0.00 -1.00 -1.00  1.00
A_1u   1.00  1.00  1.00  1.00  1.00 -1.00 -1.00 -1.00 -1.00 -1.00
A_2u   1.00  1.00  1.00 -1.00 -1.00 -1.00 -1.00 -1.00  1.00  1.00
E_u    2.00 -1.00  2.00  0.00  0.00 -2.00  1.00 -2.00  0.00  0.00
T_1u   3.00  0.00 -1.00  1.00 -1.00 -3.00  0.00  1.00 -1.00  1.00
T_2u   3.00  0.00 -1.00 -1.00  1.00 -3.00  0.00  1.00  1.00 -1.00

     the symmetry operations in each class and the name of the first element:

     E        1
                                                                 
     8C3     17   19   20   18   24   21   22   23
                                                                 
     3C2      2    4    3
                                                                 
     6C4      7    8   15   16   12   11
                                                                 
     6C2'     5    6   14   13   10    9
                                                                 
     i       25
                                                                 
     8S6     41   43   44   42   48   45   46   47
                                                                 
     3s_h    26   28   27
                                                                 
     6S4     31   32   39   40   36   35
                                                                 
     6s_d    29   30   38   37   34   33
                                                                 

     Band symmetry, O_h (m-3m)  point group:

     e(  1 -  1) =     -5.83236  eV     1   --> A_1g G_1   G_1+
     e(  2 -  4) =      5.98645  eV     3   --> T_2g G_25' G_5+
     e(  5 -  7) =      8.54020  eV     3   --> T_1u G_15  G_4-
     e(  8 -  8) =      9.10657  eV     1   --> A_2u G_2'  G_2-
     e(  9 - 10) =     13.70538  eV     2   --> E_u  G_12' G_3-

 **************************************************************************

 **************************************************************************

                    xk=(   0.00000,  -0.02357,   0.00000  )

     point group C_4v (4mm) 
     there are  5 classes
     the character table:

       E     2C4   C2    2s_v  2s_d 
A_1    1.00  1.00  1.00  1.00  1.00
A_2    1.00  1.00  1.00 -1.00 -1.00
B_1    1.00 -1.00  1.00  1.00 -1.00
B_2    1.00 -1.00  1.00 -1.00  1.00
E      2.00  0.00 -2.00  0.00  0.00

     the symmetry operations in each class and the name of the first element:

     E        1
                                                                 
     2C4      3    4
                                                                 
     C2       2
                                                                 
     2s_v     5    6
                                                                 
     2s_d     7    8
                                                                 

     Band symmetry, C_4v (4mm)  point group:

     e(  1 -  1) =     -5.82758  eV     1   --> A_1  G_1 D_1   
     e(  2 -  2) =      5.95155  eV     1   --> B_2  G_4 D_2'  
     e(  3 -  4) =      5.96589  eV     2   --> E    G_5 D_5   
     e(  5 -  5) =      8.52831  eV     1   --> A_1  G_1 D_1   
     e(  6 -  7) =      8.56665  eV     2   --> E    G_5 D_5   
     e(  8 -  8) =      9.14080  eV     1   --> B_2  G_4 D_2'  
     e(  9 -  9) =     13.66579  eV     1   --> B_2  G_4 D_2'  
     e( 10 - 10) =     13.71069  eV     1   --> A_2  G_2 D_1'  

 **************************************************************************

 **************************************************************************

                    xk=(   0.00000,  -0.04714,   0.00000  )

     Band symmetry, C_4v (4mm)  point group:

     e(  1 -  1) =     -5.81325  eV     1   --> A_1  G_1 D_1   
     e(  2 -  2) =      5.85133  eV     1   --> B_2  G_4 D_2'  
     e(  3 -  4) =      5.90674  eV     2   --> E    G_5 D_5   
     e(  5 -  5) =      8.49330  eV     1   --> A_1  G_1 D_1   
     e(  6 -  7) =      8.64348  eV     2   --> E    G_5 D_5   
     e(  8 -  8) =      9.23843  eV     1   --> B_2  G_4 D_2'  
     e(  9 -  9) =     13.55304  eV     1   --> B_2  G_4 D_2'  
     e( 10 - 10) =     13.72663  eV     1   --> A_2  G_2 D_1'  

 **************************************************************************

 **************************************************************************

                    xk=(   0.00000,  -0.07071,   0.00000  )

     Band symmetry, C_4v (4mm)  point group:

     e(  1 -  1) =     -5.78938  eV     1   --> A_1  G_1 D_1   
     e(  2 -  2) =      5.69689  eV     1   --> B_2  G_4 D_2'  
     e(  3 -  4) =      5.81539  eV     2   --> E    G_5 D_5   
     e(  5 -  5) =      8.43700  eV     1   --> A_1  G_1 D_1   
     e(  6 -  7) =      8.76426  eV     2   --> E    G_5 D_5   
     e(  8 -  8) =      9.38660  eV     1   --> B_2  G_4 D_2'  
     e(  9 -  9) =     13.38264  eV     1   --> B_2  G_4 D_2'  
     e( 10 - 10) =     13.75318  eV     1   --> A_2  G_2 D_1'  

 **************************************************************************

 **************************************************************************

                    xk=(   0.00000,  -0.09428,   0.00000  )

     Band symmetry, C_4v (4mm)  point group:

     e(  1 -  1) =     -5.75598  eV     1   --> A_1  G_1 D_1   
     e(  2 -  2) =      5.50106  eV     1   --> B_2  G_4 D_2'  
     e(  3 -  4) =      5.69960  eV     2   --> E    G_5 D_5   
     e(  5 -  5) =      8.36203  eV     1   --> A_1  G_1 D_1   
     e(  6 -  7) =      8.92101  eV     2   --> E    G_5 D_5   
     e(  8 -  8) =      9.56885  eV     1   --> B_2  G_4 D_2'  
     e(  9 -  9) =     13.17430  eV     1   --> B_2  G_4 D_2'  
     e( 10 - 10) =     13.79033  eV     1   --> A_2  G_2 D_1'  

 **************************************************************************

 **************************************************************************

                    xk=(   0.00000,  -0.11785,   0.00000  )

     Band symmetry, C_4v (4mm)  point group:

     e(  1 -  1) =     -5.71307  eV     1   --> A_1  G_1 D_1   
     e(  2 -  2) =      5.27535  eV     1   --> B_2  G_4 D_2'  
     e(  3 -  4) =      5.56702  eV     2   --> E    G_5 D_5   
     e(  5 -  5) =      8.27168  eV     1   --> A_1  G_1 D_1   
     e(  6 -  7) =      9.10629  eV     2   --> E    G_5 D_5   
     e(  8 -  8) =      9.76760  eV     1   --> B_2  G_4 D_2'  
     e(  9 -  9) =     12.94985  eV     1   --> B_2  G_4 D_2'  
     e( 10 - 10) =     13.83811  eV     1   --> A_2  G_2 D_1'  

 **************************************************************************

 **************************************************************************

                    xk=(   0.00000,  -0.14142,   0.00000  )

     Band symmetry, C_4v (4mm)  point group:

     e(  1 -  1) =     -5.66069  eV     1   --> A_1  G_1 D_1   
     e(  2 -  2) =      5.02830  eV     1   --> B_2  G_4 D_2'  
     e(  3 -  4) =      5.42352  eV     2   --> E    G_5 D_5   
     e(  5 -  5) =      8.16921  eV     1   --> A_1  G_1 D_1   
     e(  6 -  7) =      9.31377  eV     2   --> E    G_5 D_5   
     e(  8 -  8) =      9.96332  eV     1   --> B_2  G_4 D_2'  
     e(  9 -  9) =     12.73154  eV     1   --> B_2  G_4 D_2'  
     e( 10 - 10) =     13.89638  eV     1   --> A_2  G_2 D_1'  

 **************************************************************************

 **************************************************************************

                    xk=(   0.00000,  -0.16499,   0.00000  )

     Band symmetry, C_4v (4mm)  point group:

     e(  1 -  1) =     -5.59885  eV     1   --> A_1  G_1 D_1   
     e(  2 -  2) =      4.76640  eV     1   --> B_2  G_4 D_2'  
     e(  3 -  4) =      5.27400  eV     2   --> E    G_5 D_5   
     e(  5 -  5) =      8.05798  eV     1   --> A_1  G_1 D_1   
     e(  6 -  7) =      9.53880  eV     2   --> E    G_5 D_5   
     e(  8 -  8) =     10.13188  eV     1   --> B_2  G_4 D_2'  
     e(  9 -  9) =     12.54711  eV     1   --> B_2  G_4 D_2'  
     e( 10 - 10) =     13.96536  eV     1   --> A_2  G_2 D_1'  

 **************************************************************************

 **************************************************************************

                    xk=(   0.00000,  -0.18856,   0.00000  )

     Band symmetry, C_4v (4mm)  point group:

     e(  1 -  1) =     -5.52761  eV     1   --> A_1  G_1 D_1   
     e(  2 -  2) =      4.49394  eV     1   --> B_2  G_4 D_2'  
     e(  3 -  4) =      5.12185  eV     2   --> E    G_5 D_5   
     e(  5 -  5) =      7.94091  eV     1   --> A_1  G_1 D_1   
     e(  6 -  7) =      9.77770  eV     2   --> E    G_5 D_5   
     e(  8 -  8) =     10.24276  eV     1   --> B_2  G_4 D_2'  
     e(  9 -  9) =     12.42905  eV     1   --> B_2  G_4 D_2'  
     e( 10 - 10) =     14.04494  eV     1   --> A_2  G_2 D_1'  

 **************************************************************************

 **************************************************************************

                    xk=(   0.00000,  -0.21213,   0.00000  )

     Band symmetry, C_4v (4mm)  point group:

     e(  1 -  1) =     -5.44700  eV     1   --> A_1  G_1 D_1   
     e(  2 -  2) =      4.21397  eV     1   --> B_2  G_4 D_2'  
     e(  3 -  4) =      4.96962  eV     2   --> E    G_5 D_5   
     e(  5 -  5) =      7.82062  eV     1   --> A_1  G_1 D_1   
     e(  6 -  7) =     10.02776  eV     2   --> E    G_5 D_5   
     e(  8 -  8) =     10.26638  eV     1   --> B_2  G_4 D_2'  
     e(  9 -  9) =     12.40879  eV     1   --> B_2  G_4 D_2'  
     e( 10 - 10) =     14.13510  eV     1   --> A_2  G_2 D_1'  

 **************************************************************************

 **************************************************************************

                    xk=(   0.00000,  -0.23570,   0.00000  )

     Band symmetry, C_4v (4mm)  point group:

     e(  1 -  1) =     -5.35708  eV     1   --> A_1  G_1 D_1   
     e(  2 -  2) =      3.92861  eV     1   --> B_2  G_4 D_2'  
     e(  3 -  4) =      4.81915  eV     2   --> E    G_5 D_5   
     e(  5 -  5) =      7.69928  eV     1   --> A_1  G_1 D_1   
     e(  6 -  6) =     10.19318  eV     1   --> B_2  G_4 D_2'  
     e(  7 -  8) =     10.28695  eV     2   --> E    G_5 D_5   
     e(  9 -  9) =     12.49711  eV     1   --> B_2  G_4 D_2'  
     e( 10 - 10) =     14.23580  eV     1   --> A_2  G_2 D_1'  

 **************************************************************************

 **************************************************************************

                    xk=(   0.00000,  -0.25927,   0.00000  )

     Band symmetry, C_4v (4mm)  point group:

     e(  1 -  1) =     -5.25792  eV     1   --> A_1  G_1 D_1   
     e(  2 -  2) =      3.63948  eV     1   --> B_2  G_4 D_2'  
     e(  3 -  4) =      4.67201  eV     2   --> E    G_5 D_5   
     e(  5 -  5) =      7.57905  eV     1   --> A_1  G_1 D_1   
     e(  6 -  6) =     10.04119  eV     1   --> B_2  G_4 D_2'  
     e(  7 -  8) =     10.55370  eV     2   --> E    G_5 D_5   
     e(  9 -  9) =     12.67737  eV     1   --> B_2  G_4 D_2'  
     e( 10 - 10) =     14.34709  eV     1   --> A_2  G_2 D_1'  

 **************************************************************************

 **************************************************************************

                    xk=(   0.00000,  -0.28284,   0.00000  )

     Band symmetry, C_4v (4mm)  point group:

     e(  1 -  1) =     -5.14957  eV     1   --> A_1  G_1 D_1   
     e(  2 -  2) =      3.34764  eV     1   --> B_2  G_4 D_2'  
     e(  3 -  4) =      4.52919  eV     2   --> E    G_5 D_5   
     e(  5 -  5) =      7.46142  eV     1   --> A_1  G_1 D_1   
     e(  6 -  6) =      9.83879  eV     1   --> B_2  G_4 D_2'  
     e(  7 -  8) =     10.82678  eV     2   --> E    G_5 D_5   
     e(  9 -  9) =     12.92170  eV     1   --> B_2  G_4 D_2'  
     e( 10 - 10) =     14.46850  eV     1   --> A_2  G_2 D_1'  

 **************************************************************************

 **************************************************************************

                    xk=(   0.00000,  -0.30641,   0.00000  )

     Band symmetry, C_4v (4mm)  point group:

     e(  1 -  1) =     -5.03211  eV     1   --> A_1  G_1 D_1   
     e(  2 -  2) =      3.05397  eV     1   --> B_2  G_4 D_2'  
     e(  3 -  4) =      4.39159  eV     2   --> E    G_5 D_5   
     e(  5 -  5) =      7.34787  eV     1   --> A_1  G_1 D_1   
     e(  6 -  6) =      9.60928  eV     1   --> B_2  G_4 D_2'  
     e(  7 -  8) =     11.10549  eV     2   --> E    G_5 D_5   
     e(  9 -  9) =     13.20742  eV     1   --> B_2  G_4 D_2'  
     e( 10 - 10) =     14.60103  eV     1   --> A_2  G_2 D_1'  

 **************************************************************************

 **************************************************************************

                    xk=(   0.00000,  -0.32998,   0.00000  )

     Band symmetry, C_4v (4mm)  point group:

     e(  1 -  1) =     -4.90563  eV     1   --> A_1  G_1 D_1   
     e(  2 -  2) =      2.75909  eV     1   --> B_2  G_4 D_2'  
     e(  3 -  4) =      4.25984  eV     2   --> E    G_5 D_5   
     e(  5 -  5) =      7.23947  eV     1   --> A_1  G_1 D_1   
     e(  6 -  6) =      9.36781  eV     1   --> B_2  G_4 D_2'  
     e(  7 -  8) =     11.38862  eV     2   --> E    G_5 D_5   
     e(  9 -  9) =     13.51936  eV     1   --> B_2  G_4 D_2'  
     e( 10 - 10) =     14.74391  eV     1   --> A_2  G_2 D_1'  

 **************************************************************************

 **************************************************************************

                    xk=(   0.00000,  -0.35355,   0.00000  )

     Band symmetry, C_4v (4mm)  point group:

     e(  1 -  1) =     -4.77022  eV     1   --> A_1  G_1 D_1   
     e(  2 -  2) =      2.46355  eV     1   --> B_2  G_4 D_2'  
     e(  3 -  4) =      4.13446  eV     2   --> E    G_5 D_5   
     e(  5 -  5) =      7.13725  eV     1   --> A_1  G_1 D_1   
     e(  6 -  6) =      9.12377  eV     1   --> B_2  G_4 D_2'  
     e(  7 -  8) =     11.67580  eV     2   --> E    G_5 D_5   
     e(  9 -  9) =     13.84821  eV     1   --> B_2  G_4 D_2'  
     e( 10 - 10) =     14.89730  eV     1   --> A_2  G_2 D_1'  

 **************************************************************************

 **************************************************************************

                    xk=(   0.00000,  -0.37712,   0.00000  )

     Band symmetry, C_4v (4mm)  point group:

     e(  1 -  1) =     -4.62598  eV     1   --> A_1  G_1 D_1   
     e(  2 -  2) =      2.16782  eV     1   --> B_2  G_4 D_2'  
     e(  3 -  4) =      4.01587  eV     2   --> E    G_5 D_5   
     e(  5 -  5) =      7.04205  eV     1   --> A_1  G_1 D_1   
     e(  6 -  6) =      8.88298  eV     1   --> B_2  G_4 D_2'  
     e(  7 -  8) =     11.96654  eV     2   --> E    G_5 D_5   
     e(  9 -  9) =     14.18796  eV     1   --> B_2  G_4 D_2'  
     e( 10 - 10) =     15.06117  eV     1   --> A_2  G_2 D_1'  

 **************************************************************************

 **************************************************************************

                    xk=(   0.00000,  -0.40069,   0.00000  )

     Band symmetry, C_4v (4mm)  point group:

     e(  1 -  1) =     -4.47303  eV     1   --> A_1  G_1 D_1   
     e(  2 -  2) =      1.87230  eV     1   --> B_2  G_4 D_2'  
     e(  3 -  4) =      3.90442  eV     2   --> E    G_5 D_5   
     e(  5 -  5) =      6.95465  eV     1   --> A_1  G_1 D_1   
     e(  6 -  6) =      8.64902  eV     1   --> B_2  G_4 D_2'  
     e(  7 -  8) =     12.26045  eV     2   --> E    G_5 D_5   
     e(  9 -  9) =     14.53451  eV     1   --> B_2  G_4 D_2'  
     e( 10 - 10) =     15.23550  eV     1   --> A_2  G_2 D_1'  

 **************************************************************************

 **************************************************************************

                    xk=(   0.00000,  -0.42426,   0.00000  )

     Band symmetry, C_4v (4mm)  point group:

     e(  1 -  1) =     -4.31148  eV     1   --> A_1  G_1 D_1   
     e(  2 -  2) =      1.57744  eV     1   --> B_2  G_4 D_2'  
     e(  3 -  4) =      3.80035  eV     2   --> E    G_5 D_5   
     e(  5 -  5) =      6.87561  eV     1   --> A_1  G_1 D_1   
     e(  6 -  6) =      8.42457  eV     1   --> B_2  G_4 D_2'  
     e(  7 -  8) =     12.55748  eV     2   --> E    G_5 D_5   
     e(  9 -  9) =     14.88496  eV     1   --> B_2  G_4 D_2'  
     e( 10 - 10) =     15.42044  eV     1   --> A_2  G_2 D_1'  

 **************************************************************************

 **************************************************************************

                    xk=(   0.00000,  -0.44783,   0.00000  )

     Band symmetry, C_4v (4mm)  point group:

     e(  1 -  1) =     -4.14147  eV     1   --> A_1  G_1 D_1   
     e(  2 -  2) =      1.28363  eV     1   --> B_2  G_4 D_2'  
     e(  3 -  4) =      3.70399  eV     2   --> E    G_5 D_5   
     e(  5 -  5) =      6.80549  eV     1   --> A_1  G_1 D_1   
     e(  6 -  6) =      8.21120  eV     1   --> B_2  G_4 D_2'  
     e(  7 -  8) =     12.85693  eV     2   --> E    G_5 D_5   
     e(  9 -  9) =     15.23699  eV     1   --> B_2  G_4 D_2'  
     e( 10 - 10) =     15.61563  eV     1   --> A_2  G_2 D_1'  

 **************************************************************************

 **************************************************************************

                    xk=(   0.00000,  -0.47140,   0.00000  )

     Band symmetry, C_4v (4mm)  point group:

     e(  1 -  1) =     -3.96316  eV     1   --> A_1  G_1 D_1   
     e(  2 -  2) =      0.99125  eV     1   --> B_2  G_4 D_2'  
     e(  3 -  4) =      3.61548  eV     2   --> E    G_5 D_5   
     e(  5 -  5) =      6.74480  eV     1   --> A_1  G_1 D_1   
     e(  6 -  6) =      8.00996  eV     1   --> B_2  G_4 D_2'  
     e(  7 -  8) =     13.15881  eV     2   --> E    G_5 D_5   
     e(  9 -  9) =     15.58882  eV     1   --> B_2  G_4 D_2'  
     e( 10 - 10) =     15.82121  eV     1   --> A_2  G_2 D_1'  

 **************************************************************************

 **************************************************************************

                    xk=(   0.00000,  -0.49497,   0.00000  )

     Band symmetry, C_4v (4mm)  point group:

     e(  1 -  1) =     -3.77669  eV     1   --> A_1  G_1 D_1   
     e(  2 -  2) =      0.70071  eV     1   --> B_2  G_4 D_2'  
     e(  3 -  4) =      3.53498  eV     2   --> E    G_5 D_5   
     e(  5 -  5) =      6.69400  eV     1   --> A_1  G_1 D_1   
     e(  6 -  6) =      7.82160  eV     1   --> B_2  G_4 D_2'  
     e(  7 -  8) =     13.46289  eV     2   --> E    G_5 D_5   
     e(  9 -  9) =     15.93887  eV     1   --> B_2  G_4 D_2'  
     e( 10 - 10) =     16.03715  eV     1   --> A_2  G_2 D_1'  

 **************************************************************************

 **************************************************************************

                    xk=(   0.00000,  -0.51854,   0.00000  )

     Band symmetry, C_4v (4mm)  point group:

     e(  1 -  1) =     -3.58222  eV     1   --> A_1  G_1 D_1   
     e(  2 -  2) =      0.41241  eV     1   --> B_2  G_4 D_2'  
     e(  3 -  4) =      3.46265  eV     2   --> E    G_5 D_5   
     e(  5 -  5) =      6.65349  eV     1   --> A_1  G_1 D_1   
     e(  6 -  6) =      7.64659  eV     1   --> B_2  G_4 D_2'  
     e(  7 -  8) =     13.76892  eV     2   --> E    G_5 D_5   
     e(  9 -  9) =     16.26342  eV     1   --> A_2  G_2 D_1'  
     e( 10 - 10) =     16.28579  eV     1   --> B_2  G_4 D_2'  

 **************************************************************************

 **************************************************************************

                    xk=(   0.00000,  -0.54212,   0.00000  )

     Band symmetry, C_4v (4mm)  point group:

     e(  1 -  1) =     -3.37997  eV     1   --> A_1  G_1 D_1   
     e(  2 -  2) =      0.12676  eV     1   --> B_2  G_4 D_2'  
     e(  3 -  4) =      3.39858  eV     2   --> E    G_5 D_5   
     e(  5 -  5) =      6.62361  eV     1   --> A_1  G_1 D_1   
     e(  6 -  6) =      7.48521  eV     1   --> B_2  G_4 D_2'  
     e(  7 -  8) =     14.07646  eV     2   --> E    G_5 D_5   
     e(  9 -  9) =     16.49999  eV     1   --> A_2  G_2 D_1'  
     e( 10 - 10) =     16.62829  eV     1   --> B_2  G_4 D_2'  

 **************************************************************************

 **************************************************************************

                    xk=(   0.00000,  -0.56569,   0.00000  )

     Band symmetry, C_4v (4mm)  point group:

     e(  1 -  1) =     -3.17013  eV     1   --> A_1  G_1 D_1   
     e(  2 -  2) =     -0.15583  eV     1   --> B_2  G_4 D_2'  
     e(  3 -  4) =      3.34288  eV     2   --> E    G_5 D_5   
     e(  5 -  5) =      6.60472  eV     1   --> A_1  G_1 D_1   
     e(  6 -  6) =      7.33765  eV     1   --> B_2  G_4 D_2'  
     e(  7 -  8) =     14.38491  eV     2   --> E    G_5 D_5   
     e(  9 -  9) =     16.74680  eV     1   --> A_2  G_2 D_1'  
     e( 10 - 10) =     16.96519  eV     1   --> B_2  G_4 D_2'  

 **************************************************************************

 **************************************************************************

                    xk=(   0.00000,  -0.58926,   0.00000  )

     Band symmetry, C_4v (4mm)  point group:

     e(  1 -  1) =     -2.95291  eV     1   --> A_1  G_1 D_1   
     e(  2 -  2) =     -0.43497  eV     1   --> B_2  G_4 D_2'  
     e(  3 -  4) =      3.29563  eV     2   --> E    G_5 D_5   
     e(  5 -  5) =      6.59715  eV     1   --> A_1  G_1 D_1   
     e(  6 -  6) =      7.20388  eV     1   --> B_2  G_4 D_2'  
     e(  7 -  8) =     14.69310  eV     2   --> E    G_5 D_5   
     e(  9 -  9) =     17.00383  eV     1   --> A_2  G_2 D_1'  
     e( 10 - 10) =     17.29506  eV     1   --> B_2  G_4 D_2'  

 **************************************************************************

 **************************************************************************

                    xk=(   0.00000,  -0.61283,   0.00000  )

     Band symmetry, C_4v (4mm)  point group:

     e(  1 -  1) =     -2.72854  eV     1   --> A_1  G_1 D_1   
     e(  2 -  2) =     -0.71023  eV     1   --> B_2  G_4 D_2'  
     e(  3 -  4) =      3.25688  eV     2   --> E    G_5 D_5   
     e(  5 -  5) =      6.60120  eV     1   --> A_1  G_1 D_1   
     e(  6 -  6) =      7.08388  eV     1   --> B_2  G_4 D_2'  
     e(  7 -  8) =     14.99887  eV     2   --> E    G_5 D_5   
     e(  9 -  9) =     17.27102  eV     1   --> A_2  G_2 D_1'  
     e( 10 - 10) =     17.61652  eV     1   --> B_2  G_4 D_2'  

 **************************************************************************

 **************************************************************************

                    xk=(   0.00000,  -0.63640,   0.00000  )

     Band symmetry, C_4v (4mm)  point group:

     e(  1 -  1) =     -2.49728  eV     1   --> A_1  G_1 D_1   
     e(  2 -  2) =     -0.98123  eV     1   --> B_2  G_4 D_2'  
     e(  3 -  4) =      3.22669  eV     2   --> E    G_5 D_5   
     e(  5 -  5) =      6.61715  eV     1   --> A_1  G_1 D_1   
     e(  6 -  6) =      6.97758  eV     1   --> B_2  G_4 D_2'  
     e(  7 -  8) =     15.29756  eV     2   --> E    G_5 D_5   
     e(  9 - 10) =     17.53014  eV     2   -->   ?

 **************************************************************************

 **************************************************************************

                    xk=(   0.00000,  -0.65997,   0.00000  )

     Band symmetry, C_4v (4mm)  point group:

     e(  1 -  1) =     -2.25940  eV     1   --> A_1  G_1 D_1   
     e(  2 -  2) =     -1.24759  eV     1   --> B_2  G_4 D_2'  
     e(  3 -  4) =      3.20509  eV     2   --> E    G_5 D_5   
     e(  5 -  5) =      6.64521  eV     1   --> A_1  G_1 D_1   
     e(  6 -  6) =      6.88479  eV     1   --> B_2  G_4 D_2'  
     e(  7 -  8) =     15.57794  eV     2   --> E    G_5 D_5   
     e(  9 - 10) =     17.24339  eV     2   --> E    G_5 D_5   

 **************************************************************************

 **************************************************************************

                    xk=(   0.00000,  -0.68354,   0.00000  )

     Band symmetry, C_4v (4mm)  point group:

     e(  1 -  1) =     -2.01517  eV     1   --> A_1  G_1 D_1   
     e(  2 -  2) =     -1.50893  eV     1   --> B_2  G_4 D_2'  
     e(  3 -  4) =      3.19213  eV     2   --> E    G_5 D_5   
     e(  5 -  5) =      6.68581  eV     1   --> A_1  G_1 D_1   
     e(  6 -  6) =      6.80540  eV     1   --> B_2  G_4 D_2'  
     e(  7 -  8) =     15.80878  eV     2   --> E    G_5 D_5   
     e(  9 - 10) =     17.00809  eV     2   --> E    G_5 D_5   

 **************************************************************************

 **************************************************************************

                    xk=(   0.00000,  -0.70711,   0.00000  )

     zone border point and non-symmorphic group 
     symmetry decomposition not available

 **************************************************************************

 **************************************************************************

                    xk=(   0.01768,  -0.70711,   0.01768  )

     zone border point and non-symmorphic group 
     symmetry decomposition not available

 **************************************************************************

 **************************************************************************

                    xk=(   0.03536,  -0.70711,   0.03536  )

     zone border point and non-symmorphic group 
     symmetry decomposition not available

 **************************************************************************

 **************************************************************************

                    xk=(   0.05303,  -0.70711,   0.05303  )

     zone border point and non-symmorphic group 
     symmetry decomposition not available

 **************************************************************************

 **************************************************************************

                    xk=(   0.07071,  -0.70711,   0.07071  )

     zone border point and non-symmorphic group 
     symmetry decomposition not available

 **************************************************************************

 **************************************************************************

                    xk=(   0.08839,  -0.70711,   0.08839  )

     zone border point and non-symmorphic group 
     symmetry decomposition not available

 **************************************************************************

 **************************************************************************

                    xk=(   0.10607,  -0.70711,   0.10607  )

     zone border point and non-symmorphic group 
     symmetry decomposition not available

 **************************************************************************

 **************************************************************************

                    xk=(   0.12374,  -0.70711,   0.12374  )

     zone border point and non-symmorphic group 
     symmetry decomposition not available

 **************************************************************************

 **************************************************************************

                    xk=(   0.14142,  -0.70711,   0.14142  )

     zone border point and non-symmorphic group 
     symmetry decomposition not available

 **************************************************************************

 **************************************************************************

                    xk=(   0.15910,  -0.70711,   0.15910  )

     zone border point and non-symmorphic group 
     symmetry decomposition not available

 **************************************************************************

 **************************************************************************

                    xk=(   0.17678,  -0.70711,   0.17678  )

     zone border point and non-symmorphic group 
     symmetry decomposition not available

 **************************************************************************

 **************************************************************************

                    xk=(   0.17088,  -0.68354,   0.17088  )

     point group C_s (m)    
     there are  2 classes
     the character table:

       E     s    
A'     1.00  1.00
A''    1.00 -1.00

     the symmetry operations in each class and the name of the first element:

     E        1
                                                                 
     s        2
                                                                 

     Band symmetry, C_s (m)     point group:

     e(  1 -  1) =     -2.18289  eV     1   --> A'             
     e(  2 -  2) =     -1.18441  eV     1   --> A'             
     e(  3 -  3) =      1.82535  eV     1   --> A'             
     e(  4 -  4) =      3.58395  eV     1   --> A''            
     e(  5 -  5) =      7.19648  eV     1   --> A'             
     e(  6 -  6) =      9.94209  eV     1   --> A'             
     e(  7 -  7) =     13.39337  eV     1   --> A''            
     e(  8 -  8) =     13.75253  eV     1   --> A'             
     e(  9 -  9) =     14.40093  eV     1   --> A'             
     e( 10 - 10) =     14.64902  eV     1   --> A''            

 **************************************************************************

 **************************************************************************

                    xk=(   0.16499,  -0.65997,   0.16499  )

     Band symmetry, C_s (m)     point group:

     e(  1 -  1) =     -2.26585  eV     1   --> A'             
     e(  2 -  2) =     -1.10975  eV     1   --> A'             
     e(  3 -  3) =      1.89621  eV     1   --> A'             
     e(  4 -  4) =      3.56997  eV     1   --> A''            
     e(  5 -  5) =      7.18351  eV     1   --> A'             
     e(  6 -  6) =      9.79624  eV     1   --> A'             
     e(  7 -  7) =     13.31755  eV     1   --> A''            
     e(  8 -  8) =     13.53307  eV     1   --> A'             
     e(  9 -  9) =     14.80575  eV     1   --> A'             
     e( 10 - 10) =     14.94217  eV     1   --> A''            

 **************************************************************************

 **************************************************************************

                    xk=(   0.15910,  -0.63640,   0.15910  )

     Band symmetry, C_s (m)     point group:

     e(  1 -  1) =     -2.40753  eV     1   --> A'             
     e(  2 -  2) =     -0.97580  eV     1   --> A'             
     e(  3 -  3) =      1.99030  eV     1   --> A'             
     e(  4 -  4) =      3.56492  eV     1   --> A''            
     e(  5 -  5) =      7.18246  eV     1   --> A'             
     e(  6 -  6) =      9.66460  eV     1   --> A'             
     e(  7 -  7) =     13.19311  eV     1   --> A''            
     e(  8 -  8) =     13.31164  eV     1   --> A'             
     e(  9 -  9) =     15.20867  eV     1   --> A'             
     e( 10 - 10) =     15.30094  eV     1   --> A''            

 **************************************************************************

 **************************************************************************

                    xk=(   0.15321,  -0.61283,   0.15321  )

     Band symmetry, C_s (m)     point group:

     e(  1 -  1) =     -2.58292  eV     1   --> A'             
     e(  2 -  2) =     -0.80434  eV     1   --> A'             
     e(  3 -  3) =      2.10410  eV     1   --> A'             
     e(  4 -  4) =      3.56890  eV     1   --> A''            
     e(  5 -  5) =      7.19289  eV     1   --> A'             
     e(  6 -  6) =      9.54809  eV     1   --> A'             
     e(  7 -  7) =     13.04937  eV     1   --> A''            
     e(  8 -  8) =     13.09091  eV     1   --> A'             
     e(  9 -  9) =     15.60295  eV     1   --> A'             
     e( 10 - 10) =     15.69472  eV     1   --> A''            

 **************************************************************************

 **************************************************************************

                    xk=(   0.14731,  -0.58926,   0.14731  )

     Band symmetry, C_s (m)     point group:

     e(  1 -  1) =     -2.77575  eV     1   --> A'             
     e(  2 -  2) =     -0.60903  eV     1   --> A'             
     e(  3 -  3) =      2.23456  eV     1   --> A'             
     e(  4 -  4) =      3.58202  eV     1   --> A''            
     e(  5 -  5) =      7.21415  eV     1   --> A'             
     e(  6 -  6) =      9.44774  eV     1   --> A'             
     e(  7 -  7) =     12.87159  eV     1   --> A'             
     e(  8 -  8) =     12.89852  eV     1   --> A''            
     e(  9 -  9) =     15.98123  eV     1   --> A'             
     e( 10 - 10) =     16.10938  eV     1   --> A''            

 **************************************************************************

 **************************************************************************

                    xk=(   0.14142,  -0.56569,   0.14142  )

     Band symmetry, C_s (m)     point group:

     e(  1 -  1) =     -2.97674  eV     1   --> A'             
     e(  2 -  2) =     -0.39706  eV     1   --> A'             
     e(  3 -  3) =      2.37911  eV     1   --> A'             
     e(  4 -  4) =      3.60433  eV     1   --> A''            
     e(  5 -  5) =      7.24533  eV     1   --> A'             
     e(  6 -  6) =      9.36479  eV     1   --> A'             
     e(  7 -  7) =     12.65398  eV     1   --> A'             
     e(  8 -  8) =     12.74545  eV     1   --> A''            
     e(  9 -  9) =     16.33263  eV     1   --> A'             
     e( 10 - 10) =     16.53678  eV     1   --> A''            

 **************************************************************************

 **************************************************************************

                    xk=(   0.13553,  -0.54212,   0.13553  )

     Band symmetry, C_s (m)     point group:

     e(  1 -  1) =     -3.18042  eV     1   --> A'             
     e(  2 -  2) =     -0.17224  eV     1   --> A'             
     e(  3 -  3) =      2.53549  eV     1   --> A'             
     e(  4 -  4) =      3.63586  eV     1   --> A''            
     e(  5 -  5) =      7.28520  eV     1   --> A'             
     e(  6 -  6) =      9.30075  eV     1   --> A'             
     e(  7 -  7) =     12.43827  eV     1   --> A'             
     e(  8 -  8) =     12.59203  eV     1   --> A''            
     e(  9 -  9) =     16.64070  eV     1   --> A'             
     e( 10 - 10) =     16.96652  eV     1   --> A''            

 **************************************************************************

 **************************************************************************

                    xk=(   0.12964,  -0.51854,   0.12964  )

     Band symmetry, C_s (m)     point group:

     e(  1 -  1) =     -3.38333  eV     1   --> A'             
     e(  2 -  2) =      0.06328  eV     1   --> A'             
     e(  3 -  3) =      2.70175  eV     1   --> A'             
     e(  4 -  4) =      3.67662  eV     1   --> A''            
     e(  5 -  5) =      7.33224  eV     1   --> A'             
     e(  6 -  6) =      9.25726  eV     1   --> A'             
     e(  7 -  7) =     12.22474  eV     1   --> A'             
     e(  8 -  8) =     12.43874  eV     1   --> A''            
     e(  9 -  9) =     16.88060  eV     1   --> A'             
     e( 10 - 10) =     17.23243  eV     1   --> A''            

 **************************************************************************

 **************************************************************************

                    xk=(   0.12374,  -0.49497,   0.12374  )

     Band symmetry, C_s (m)     point group:

     e(  1 -  1) =     -3.58316  eV     1   --> A'             
     e(  2 -  2) =      0.30822  eV     1   --> A'             
     e(  3 -  3) =      2.87611  eV     1   --> A'             
     e(  4 -  4) =      3.72659  eV     1   --> A''            
     e(  5 -  5) =      7.38464  eV     1   --> A'             
     e(  6 -  6) =      9.23604  eV     1   --> A'             
     e(  7 -  7) =     12.01356  eV     1   --> A'             
     e(  8 -  8) =     12.28512  eV     1   --> A''            
     e(  9 -  9) =     16.89169  eV     1   --> A''            
     e( 10 - 10) =     16.99812  eV     1   --> A'             

 **************************************************************************

 **************************************************************************

                    xk=(   0.11785,  -0.47140,   0.11785  )

     Band symmetry, C_s (m)     point group:

     e(  1 -  1) =     -3.77828  eV     1   --> A'             
     e(  2 -  2) =      0.56177  eV     1   --> A'             
     e(  3 -  3) =      3.05700  eV     1   --> A'             
     e(  4 -  4) =      3.78575  eV     1   --> A''            
     e(  5 -  5) =      7.44043  eV     1   --> A'             
     e(  6 -  6) =      9.23902  eV     1   --> A'             
     e(  7 -  7) =     11.80504  eV     1   --> A'             
     e(  8 -  8) =     12.13022  eV     1   --> A''            
     e(  9 -  9) =     16.51625  eV     1   --> A''            
     e( 10 - 10) =     16.76656  eV     1   --> A'             

 **************************************************************************

 **************************************************************************

                    xk=(   0.11196,  -0.44783,   0.11196  )

     Band symmetry, C_s (m)     point group:

     e(  1 -  1) =     -3.96747  eV     1   --> A'             
     e(  2 -  2) =      0.82335  eV     1   --> A'             
     e(  3 -  3) =      3.24291  eV     1   --> A'             
     e(  4 -  4) =      3.85396  eV     1   --> A''            
     e(  5 -  5) =      7.49768  eV     1   --> A'             
     e(  6 -  6) =      9.26748  eV     1   --> A'             
     e(  7 -  7) =     11.59970  eV     1   --> A'             
     e(  8 -  8) =     11.97260  eV     1   --> A''            
     e(  9 -  9) =     16.15675  eV     1   --> A''            
     e( 10 - 10) =     16.34365  eV     1   --> A'             

 **************************************************************************

 **************************************************************************

                    xk=(   0.10607,  -0.42426,   0.10607  )

     Band symmetry, C_s (m)     point group:

     e(  1 -  1) =     -4.14983  eV     1   --> A'             
     e(  2 -  2) =      1.09252  eV     1   --> A'             
     e(  3 -  3) =      3.43247  eV     1   --> A'             
     e(  4 -  4) =      3.93116  eV     1   --> A''            
     e(  5 -  5) =      7.55477  eV     1   --> A'             
     e(  6 -  6) =      9.32197  eV     1   --> A'             
     e(  7 -  7) =     11.39828  eV     1   --> A'             
     e(  8 -  8) =     11.81069  eV     1   --> A''            
     e(  9 -  9) =     15.81843  eV     1   --> A''            
     e( 10 - 10) =     15.90292  eV     1   --> A'             

 **************************************************************************

 **************************************************************************

                    xk=(   0.10017,  -0.40069,   0.10017  )

     Band symmetry, C_s (m)     point group:

     e(  1 -  1) =     -4.32463  eV     1   --> A'             
     e(  2 -  2) =      1.36893  eV     1   --> A'             
     e(  3 -  3) =      3.62436  eV     1   --> A'             
     e(  4 -  4) =      4.01717  eV     1   --> A''            
     e(  5 -  5) =      7.61071  eV     1   --> A'             
     e(  6 -  6) =      9.40157  eV     1   --> A'             
     e(  7 -  7) =     11.20202  eV     1   --> A'             
     e(  8 -  8) =     11.64263  eV     1   --> A''            
     e(  9 -  9) =     15.46179  eV     1   --> A'             
     e( 10 - 10) =     15.50395  eV     1   --> A''            

 **************************************************************************

 **************************************************************************

                    xk=(   0.09428,  -0.37712,   0.09428  )

     Band symmetry, C_s (m)     point group:

     e(  1 -  1) =     -4.49130  eV     1   --> A'             
     e(  2 -  2) =      1.65225  eV     1   --> A'             
     e(  3 -  3) =      3.81738  eV     1   --> A'             
     e(  4 -  4) =      4.11185  eV     1   --> A''            
     e(  5 -  5) =      7.66527  eV     1   --> A'             
     e(  6 -  6) =      9.50329  eV     1   --> A'             
     e(  7 -  7) =     11.01346  eV     1   --> A'             
     e(  8 -  8) =     11.46701  eV     1   --> A''            
     e(  9 -  9) =     15.02485  eV     1   --> A'             
     e( 10 - 10) =     15.21567  eV     1   --> A''            

 **************************************************************************

 **************************************************************************

                    xk=(   0.08839,  -0.35355,   0.08839  )

     Band symmetry, C_s (m)     point group:

     e(  1 -  1) =     -4.64939  eV     1   --> A'             
     e(  2 -  2) =      1.94214  eV     1   --> A'             
     e(  3 -  3) =      4.01034  eV     1   --> A'             
     e(  4 -  4) =      4.21491  eV     1   --> A''            
     e(  5 -  5) =      7.71895  eV     1   --> A'             
     e(  6 -  6) =      9.62037  eV     1   --> A'             
     e(  7 -  7) =     10.83712  eV     1   --> A'             
     e(  8 -  8) =     11.28232  eV     1   --> A''            
     e(  9 -  9) =     14.59509  eV     1   --> A'             
     e( 10 - 10) =     14.95516  eV     1   --> A''            

 **************************************************************************

 **************************************************************************

                    xk=(   0.08250,  -0.32998,   0.08250  )

     Band symmetry, C_s (m)     point group:

     e(  1 -  1) =     -4.79850  eV     1   --> A'             
     e(  2 -  2) =      2.23819  eV     1   --> A'             
     e(  3 -  3) =      4.20208  eV     1   --> A'             
     e(  4 -  4) =      4.32605  eV     1   --> A''            
     e(  5 -  5) =      7.77252  eV     1   --> A'             
     e(  6 -  6) =      9.73898  eV     1   --> A'             
     e(  7 -  7) =     10.68306  eV     1   --> A'             
     e(  8 -  8) =     11.08764  eV     1   --> A''            
     e(  9 -  9) =     14.17578  eV     1   --> A'             
     e( 10 - 10) =     14.72337  eV     1   --> A''            

 **************************************************************************

 **************************************************************************

                    xk=(   0.07660,  -0.30641,   0.07660  )

     Band symmetry, C_s (m)     point group:

     e(  1 -  1) =     -4.93834  eV     1   --> A'             
     e(  2 -  2) =      2.53999  eV     1   --> A'             
     e(  3 -  3) =      4.39149  eV     1   --> A'             
     e(  4 -  4) =      4.44488  eV     1   --> A''            
     e(  5 -  5) =      7.82723  eV     1   --> A'             
     e(  6 -  6) =      9.83051  eV     1   --> A'             
     e(  7 -  7) =     10.57444  eV     1   --> A'             
     e(  8 -  8) =     10.88301  eV     1   --> A''            
     e(  9 -  9) =     13.77164  eV     1   --> A'             
     e( 10 - 10) =     14.52070  eV     1   --> A''            

 **************************************************************************

 **************************************************************************

                    xk=(   0.07071,  -0.28284,   0.07071  )

     Band symmetry, C_s (m)     point group:

     e(  1 -  1) =     -5.06862  eV     1   --> A'             
     e(  2 -  2) =      2.84701  eV     1   --> A'             
     e(  3 -  3) =      4.57096  eV     1   --> A''            
     e(  4 -  4) =      4.57751  eV     1   --> A'             
     e(  5 -  5) =      7.88418  eV     1   --> A'             
     e(  6 -  6) =      9.84976  eV     1   --> A'             
     e(  7 -  7) =     10.54759  eV     1   --> A'             
     e(  8 -  8) =     10.66899  eV     1   --> A''            
     e(  9 -  9) =     13.39042  eV     1   --> A'             
     e( 10 - 10) =     14.34661  eV     1   --> A''            

 **************************************************************************

 **************************************************************************

                    xk=(   0.06482,  -0.25927,   0.06482  )

     Band symmetry, C_s (m)     point group:

     e(  1 -  1) =     -5.18913  eV     1   --> A'             
     e(  2 -  2) =      3.15852  eV     1   --> A'             
     e(  3 -  3) =      4.70357  eV     1   --> A''            
     e(  4 -  4) =      4.75888  eV     1   --> A'             
     e(  5 -  5) =      7.94401  eV     1   --> A'             
     e(  6 -  6) =      9.78116  eV     1   --> A'             
     e(  7 -  7) =     10.44706  eV     1   --> A''            
     e(  8 -  8) =     10.60323  eV     1   --> A'             
     e(  9 -  9) =     13.04536  eV     1   --> A'             
     e( 10 - 10) =     14.19989  eV     1   --> A''            

 **************************************************************************

 **************************************************************************

                    xk=(   0.05893,  -0.23570,   0.05893  )

     Band symmetry, C_s (m)     point group:

     e(  1 -  1) =     -5.29968  eV     1   --> A'             
     e(  2 -  2) =      3.47363  eV     1   --> A'             
     e(  3 -  3) =      4.84192  eV     1   --> A''            
     e(  4 -  4) =      4.93446  eV     1   --> A'             
     e(  5 -  5) =      8.00724  eV     1   --> A'             
     e(  6 -  6) =      9.66040  eV     1   --> A'             
     e(  7 -  7) =     10.21935  eV     1   --> A''            
     e(  8 -  8) =     10.68059  eV     1   --> A'             
     e(  9 -  9) =     12.76049  eV     1   --> A'             
     e( 10 - 10) =     14.07846  eV     1   --> A''            

 **************************************************************************

 **************************************************************************

                    xk=(   0.05303,  -0.21213,   0.05303  )

     Band symmetry, C_s (m)     point group:

     e(  1 -  1) =     -5.40012  eV     1   --> A'             
     e(  2 -  2) =      3.79118  eV     1   --> A'             
     e(  3 -  3) =      4.98495  eV     1   --> A''            
     e(  4 -  4) =      5.10292  eV     1   --> A'             
     e(  5 -  5) =      8.07376  eV     1   --> A'             
     e(  6 -  6) =      9.51949  eV     1   --> A'             
     e(  7 -  7) =      9.98878  eV     1   --> A''            
     e(  8 -  8) =     10.70918  eV     1   --> A'             
     e(  9 -  9) =     12.57309  eV     1   --> A'             
     e( 10 - 10) =     13.98011  eV     1   --> A''            

 **************************************************************************

 **************************************************************************

                    xk=(   0.04714,  -0.18856,   0.04714  )

     Band symmetry, C_s (m)     point group:

     e(  1 -  1) =     -5.49030  eV     1   --> A'             
     e(  2 -  2) =      4.10954  eV     1   --> A'             
     e(  3 -  3) =      5.13124  eV     1   --> A''            
     e(  4 -  4) =      5.26286  eV     1   --> A'             
     e(  5 -  5) =      8.14300  eV     1   --> A'             
     e(  6 -  6) =      9.37364  eV     1   --> A'             
     e(  7 -  7) =      9.75859  eV     1   --> A''            
     e(  8 -  8) =     10.63808  eV     1   --> A'             
     e(  9 -  9) =     12.51794  eV     1   --> A'             
     e( 10 - 10) =     13.90216  eV     1   --> A''            

 **************************************************************************

 **************************************************************************

                    xk=(   0.04125,  -0.16499,   0.04125  )

     Band symmetry, C_s (m)     point group:

     e(  1 -  1) =     -5.57012  eV     1   --> A'             
     e(  2 -  2) =      4.42641  eV     1   --> A'             
     e(  3 -  3) =      5.27886  eV     1   --> A''            
     e(  4 -  4) =      5.41260  eV     1   --> A'             
     e(  5 -  5) =      8.21369  eV     1   --> A'             
     e(  6 -  6) =      9.22989  eV     1   --> A'             
     e(  7 -  7) =      9.53254  eV     1   --> A''            
     e(  8 -  8) =     10.46313  eV     1   --> A'             
     e(  9 -  9) =     12.59109  eV     1   --> A'             
     e( 10 - 10) =     13.84171  eV     1   --> A''            

 **************************************************************************

 **************************************************************************

                    xk=(   0.03536,  -0.14142,   0.03536  )

     Band symmetry, C_s (m)     point group:

     e(  1 -  1) =     -5.63947  eV     1   --> A'             
     e(  2 -  2) =      4.73848  eV     1   --> A'             
     e(  3 -  3) =      5.42512  eV     1   --> A''            
     e(  4 -  4) =      5.55028  eV     1   --> A'             
     e(  5 -  5) =      8.28398  eV     1   --> A'             
     e(  6 -  6) =      9.09206  eV     1   --> A'             
     e(  7 -  7) =      9.31489  eV     1   --> A''            
     e(  8 -  8) =     10.22071  eV     1   --> A'             
     e(  9 -  9) =     12.75176  eV     1   --> A'             
     e( 10 - 10) =     13.79603  eV     1   --> A''            

 **************************************************************************

 **************************************************************************

                    xk=(   0.02946,  -0.11785,   0.02946  )

     Band symmetry, C_s (m)     point group:

     e(  1 -  1) =     -5.69828  eV     1   --> A'             
     e(  2 -  2) =      5.04084  eV     1   --> A'             
     e(  3 -  3) =      5.56654  eV     1   --> A''            
     e(  4 -  4) =      5.67375  eV     1   --> A'             
     e(  5 -  5) =      8.35146  eV     1   --> A'             
     e(  6 -  6) =      8.96241  eV     1   --> A'             
     e(  7 -  7) =      9.11072  eV     1   --> A''            
     e(  8 -  8) =      9.95104  eV     1   --> A'             
     e(  9 -  9) =     12.95705  eV     1   --> A'             
     e( 10 - 10) =     13.76246  eV     1   --> A''            

 **************************************************************************

 **************************************************************************

                    xk=(   0.02357,  -0.09428,   0.02357  )

     Band symmetry, C_s (m)     point group:

     e(  1 -  1) =     -5.74648  eV     1   --> A'             
     e(  2 -  2) =      5.32610  eV     1   --> A'             
     e(  3 -  3) =      5.69834  eV     1   --> A''            
     e(  4 -  4) =      5.78046  eV     1   --> A'             
     e(  5 -  5) =      8.41318  eV     1   --> A'             
     e(  6 -  6) =      8.84237  eV     1   --> A'             
     e(  7 -  7) =      8.92603  eV     1   --> A''            
     e(  8 -  8) =      9.68485  eV     1   --> A'             
     e(  9 -  9) =     13.17493  eV     1   --> A'             
     e( 10 - 10) =     13.73874  eV     1   --> A''            

 **************************************************************************

 **************************************************************************

                    xk=(   0.01768,  -0.07071,   0.01768  )

     Band symmetry, C_s (m)     point group:

     e(  1 -  1) =     -5.78402  eV     1   --> A'             
     e(  2 -  2) =      5.58272  eV     1   --> A'             
     e(  3 -  3) =      5.81406  eV     1   --> A''            
     e(  4 -  4) =      5.86772  eV     1   --> A'             
     e(  5 -  5) =      8.46585  eV     1   --> A'             
     e(  6 -  6) =      8.73300  eV     1   --> A'             
     e(  7 -  7) =      8.76815  eV     1   --> A''            
     e(  8 -  8) =      9.44738  eV     1   --> A'             
     e(  9 -  9) =     13.38056  eV     1   --> A'             
     e( 10 - 10) =     13.72273  eV     1   --> A''            

 **************************************************************************

 **************************************************************************

                    xk=(   0.01179,  -0.04714,   0.01179  )

     Band symmetry, C_s (m)     point group:

     e(  1 -  1) =     -5.81087  eV     1   --> A'             
     e(  2 -  2) =      5.79347  eV     1   --> A'             
     e(  3 -  3) =      5.90592  eV     1   --> A''            
     e(  4 -  4) =      5.93267  eV     1   --> A'             
     e(  5 -  5) =      8.50620  eV     1   --> A'             
     e(  6 -  6) =      8.63758  eV     1   --> A'             
     e(  7 -  7) =      8.64559  eV     1   --> A''            
     e(  8 -  8) =      9.26171  eV     1   --> A'             
     e(  9 -  9) =     13.55111  eV     1   --> A'             
     e( 10 - 10) =     13.71262  eV     1   --> A''            

 **************************************************************************

 **************************************************************************

                    xk=(   0.00589,  -0.02357,   0.00589  )

     Band symmetry, C_s (m)     point group:

     e(  1 -  1) =     -5.82698  eV     1   --> A'             
     e(  2 -  2) =      5.93565  eV     1   --> A'             
     e(  3 -  3) =      5.96564  eV     1   --> A''            
     e(  4 -  4) =      5.97284  eV     1   --> A'             
     e(  5 -  5) =      8.53155  eV     1   --> A'             
     e(  6 -  6) =      8.56712  eV     1   --> A'             
     e(  7 -  7) =      8.56724  eV     1   --> A''            
     e(  8 -  8) =      9.14559  eV     1   --> A'             
     e(  9 -  9) =     13.66511  eV     1   --> A'             
     e( 10 - 10) =     13.70712  eV     1   --> A''            

 **************************************************************************

 **************************************************************************

                    xk=(   0.00000,   0.00000,   0.00000  )

     point group O_h (m-3m) 
     there are 10 classes
     the character table:

       E     8C3   3C2   6C4   6C2'  i     8S6   3s_h  6S4   6s_d 
A_1g   1.00  1.00  1.00  1.00  1.00  1.00  1.00  1.00  1.00  1.00
A_2g   1.00  1.00  1.00 -1.00 -1.00  1.00  1.00  1.00 -1.00 -1.00
E_g    2.00 -1.00  2.00  0.00  0.00  2.00 -1.00  2.00  0.00  0.00
T_1g   3.00  0.00 -1.00  1.00 -1.00  3.00  0.00 -1.00  1.00 -1.00
T_2g   3.00  0.00 -1.00 -1.00  1.00  3.00  0.00 -1.00 -1.00  1.00
A_1u   1.00  1.00  1.00  1.00  1.00 -1.00 -1.00 -1.00 -1.00 -1.00
A_2u   1.00  1.00  1.00 -1.00 -1.00 -1.00 -1.00 -1.00  1.00  1.00
E_u    2.00 -1.00  2.00  0.00  0.00 -2.00  1.00 -2.00  0.00  0.00
T_1u   3.00  0.00 -1.00  1.00 -1.00 -3.00  0.00  1.00 -1.00  1.00
T_2u   3.00  0.00 -1.00 -1.00  1.00 -3.00  0.00  1.00  1.00 -1.00

     the symmetry operations in each class and the name of the first element:

     E        1
                                                                 
     8C3     17   19   20   18   24   21   22   23
                                                                 
     3C2      2    4    3
                                                                 
     6C4      7    8   15   16   12   11
                                                                 
     6C2'     5    6   14   13   10    9
                                                                 
     i       25
                                                                 
     8S6     41   43   44   42   48   45   46   47
                                                                 
     3s_h    26   28   27
                                                                 
     6S4     31   32   39   40   36   35
                                                                 
     6s_d    29   30   38   37   34   33
                                                                 

     Band symmetry, O_h (m-3m)  point group:

     e(  1 -  1) =     -5.83236  eV     1   --> A_1g G_1   G_1+
     e(  2 -  4) =      5.98645  eV     3   --> T_2g G_25' G_5+
     e(  5 -  7) =      8.54020  eV     3   --> T_1u G_15  G_4-
     e(  8 -  8) =      9.10657  eV     1   --> A_2u G_2'  G_2-
     e(  9 - 10) =     13.70538  eV     2   --> E_u  G_12' G_3-

 **************************************************************************

     BANDS        :      8.24s CPU      8.94s WALL


   This run was terminated on:  15: 9: 1  13May2023            

=------------------------------------------------------------------------------=
   JOB DONE.
=------------------------------------------------------------------------------=
