
     Program PWSCF v.6.8 starts on 13May2023 at 15: 8:11 

     This program is part of the open-source Quantum ESPRESSO suite
     for quantum simulation of materials; please cite
         "P. Giannozzi et al., J. Phys.:Condens. Matter 21 395502 (2009);
         "P. Giannozzi et al., J. Phys.:Condens. Matter 29 465901 (2017);
         "P. Giannozzi et al., J. Chem. Phys. 152 154105 (2020);
          URL http://www.quantum-espresso.org", 
     in publications or presentations arising from this work. More details at
     http://www.quantum-espresso.org/quote

     Parallel version (MPI), running on     1 processors

     MPI processes distributed on     1 nodes
     3009 MiB available memory on the printing compute node when the environment starts

     Reading input from pw.bands.silicon.in

     Current dimensions of program PWSCF are:
     Max number of different atomic species (ntypx) = 10
     Max number of k-points (npk) =  40000
     Max angular momentum in pseudopotentials (lmaxx) =  4
     Message from routine volume:
     axis vectors are left-handed

     Atomic positions and unit cell read from directory:
     ./si.save/
     Atomic positions from file used, from input discarded

     Message from routine volume:
     axis vectors are left-handed
     Message from routine setup:
     using ibrav=0 with symmetry is DISCOURAGED, use correct ibrav instead

     Subspace diagonalization in iterative solution of the eigenvalue problem:
     a serial algorithm will be used


     G-vector sticks info
     --------------------
     sticks:   dense  smooth     PW     G-vecs:    dense   smooth      PW
     Sum         877     439    139                17261     6183    1067

     Using Slab Decomposition



     bravais-lattice index     =            0
     lattice parameter (alat)  =       7.3077  a.u.
     unit-cell volume          =     275.9486 (a.u.)^3
     number of atoms/cell      =            2
     number of atomic types    =            1
     number of electrons       =         8.00
     number of Kohn-Sham states=           10
     kinetic-energy cutoff     =      30.0000  Ry
     charge density cutoff     =     240.0000  Ry
     Exchange-correlation= PBE
                           (   1   4   3   4   0   0   0)

     celldm(1)=   7.307706  celldm(2)=   0.000000  celldm(3)=   0.000000
     celldm(4)=   0.000000  celldm(5)=   0.000000  celldm(6)=   0.000000

     crystal axes: (cart. coord. in units of alat)
               a(1) = (   0.707107   0.707107   0.000000 )  
               a(2) = (   0.707107   0.000000   0.707107 )  
               a(3) = (   0.000000   0.707107   0.707107 )  

     reciprocal axes: (cart. coord. in units 2 pi/alat)
               b(1) = (  0.707107  0.707107 -0.707107 )  
               b(2) = (  0.707107 -0.707107  0.707107 )  
               b(3) = ( -0.707107  0.707107  0.707107 )  


     PseudoPot. # 1 for Si read from file:
     ./pseudo/Si.pbe-n-rrkjus_psl.1.0.0.UPF
     MD5 check sum: 0b0bb1205258b0d07b9f9672cf965d36
     Pseudo is Ultrasoft + core correction, Zval =  4.0
     Generated using "atomic" code by A. Dal Corso  v.5.1
     Using radial grid of 1141 points,  6 beta functions with: 
                l(1) =   0
                l(2) =   0
                l(3) =   1
                l(4) =   1
                l(5) =   2
                l(6) =   2
     Q(r) pseudized with 0 coefficients 


     atomic species   valence    mass     pseudopotential
        Si             4.00    28.08550     Si( 1.00)

     48 Sym. Ops., with inversion, found (24 have fractional translation)


                                    s                        frac. trans.

      isym =  1     identity                                     

 cryst.   s( 1) = (     1          0          0      )
                  (     0          1          0      )
                  (     0          0          1      )

 cart.    s( 1) = (  1.0000000  0.0000000  0.0000000 )
                  (  0.0000000  1.0000000  0.0000000 )
                  (  0.0000000  0.0000000  1.0000000 )


      isym =  2     180 deg rotation - cart. axis [0,0,1]        

 cryst.   s( 2) = (    -1          0          0      )
                  (    -1          0          1      )
                  (    -1          1          0      )

 cart.    s( 2) = ( -1.0000000  0.0000000  0.0000000 )
                  (  0.0000000 -1.0000000  0.0000000 )
                  (  0.0000000  0.0000000  1.0000000 )


      isym =  3     180 deg rotation - cart. axis [0,1,0]        

 cryst.   s( 3) = (     0         -1          1      )
                  (     0         -1          0      )
                  (     1         -1          0      )

 cart.    s( 3) = ( -1.0000000  0.0000000  0.0000000 )
                  (  0.0000000  1.0000000  0.0000000 )
                  (  0.0000000  0.0000000 -1.0000000 )


      isym =  4     180 deg rotation - cart. axis [1,0,0]        

 cryst.   s( 4) = (     0          1         -1      )
                  (     1          0         -1      )
                  (     0          0         -1      )

 cart.    s( 4) = (  1.0000000  0.0000000  0.0000000 )
                  (  0.0000000 -1.0000000  0.0000000 )
                  (  0.0000000  0.0000000 -1.0000000 )


      isym =  5     180 deg rotation - cart. axis [1,1,0]        

 cryst.   s( 5) = (     1          0          0      )    f =( -0.2500000 )
                  (     1         -1          0      )       ( -0.2500000 )
                  (     1          0         -1      )       ( -0.2500000 )

 cart.    s( 5) = (  0.0000000  1.0000000  0.0000000 )    f =( -0.3535534 )
                  (  1.0000000  0.0000000  0.0000000 )       ( -0.3535534 )
                  (  0.0000000  0.0000000 -1.0000000 )       ( -0.3535534 )


      isym =  6     180 deg rotation - cart. axis [1,-1,0]       

 cryst.   s( 6) = (    -1          0          0      )    f =( -0.2500000 )
                  (     0          0         -1      )       ( -0.2500000 )
                  (     0         -1          0      )       ( -0.2500000 )

 cart.    s( 6) = (  0.0000000 -1.0000000  0.0000000 )    f =( -0.3535534 )
                  ( -1.0000000  0.0000000  0.0000000 )       ( -0.3535534 )
                  (  0.0000000  0.0000000 -1.0000000 )       ( -0.3535534 )


      isym =  7      90 deg rotation - cart. axis [0,0,-1]       

 cryst.   s( 7) = (     0          1         -1      )    f =( -0.2500000 )
                  (    -1          1          0      )       ( -0.2500000 )
                  (     0          1          0      )       ( -0.2500000 )

 cart.    s( 7) = (  0.0000000  1.0000000  0.0000000 )    f =( -0.3535534 )
                  ( -1.0000000  0.0000000  0.0000000 )       ( -0.3535534 )
                  (  0.0000000  0.0000000  1.0000000 )       ( -0.3535534 )


      isym =  8      90 deg rotation - cart. axis [0,0,1]        

 cryst.   s( 8) = (     0         -1          1      )    f =( -0.2500000 )
                  (     0          0          1      )       ( -0.2500000 )
                  (    -1          0          1      )       ( -0.2500000 )

 cart.    s( 8) = (  0.0000000 -1.0000000  0.0000000 )    f =( -0.3535534 )
                  (  1.0000000  0.0000000  0.0000000 )       ( -0.3535534 )
                  (  0.0000000  0.0000000  1.0000000 )       ( -0.3535534 )


      isym =  9     180 deg rotation - cart. axis [1,0,1]        

 cryst.   s( 9) = (    -1          1          0      )    f =( -0.2500000 )
                  (     0          1          0      )       ( -0.2500000 )
                  (     0          1         -1      )       ( -0.2500000 )

 cart.    s( 9) = (  0.0000000  0.0000000  1.0000000 )    f =( -0.3535534 )
                  (  0.0000000 -1.0000000  0.0000000 )       ( -0.3535534 )
                  (  1.0000000  0.0000000  0.0000000 )       ( -0.3535534 )


      isym = 10     180 deg rotation - cart. axis [-1,0,1]       

 cryst.   s(10) = (     0          0         -1      )    f =( -0.2500000 )
                  (     0         -1          0      )       ( -0.2500000 )
                  (    -1          0          0      )       ( -0.2500000 )

 cart.    s(10) = (  0.0000000  0.0000000 -1.0000000 )    f =( -0.3535534 )
                  (  0.0000000 -1.0000000  0.0000000 )       ( -0.3535534 )
                  ( -1.0000000  0.0000000  0.0000000 )       ( -0.3535534 )


      isym = 11      90 deg rotation - cart. axis [0,1,0]        

 cryst.   s(11) = (     1         -1          0      )    f =( -0.2500000 )
                  (     1          0         -1      )       ( -0.2500000 )
                  (     1          0          0      )       ( -0.2500000 )

 cart.    s(11) = (  0.0000000  0.0000000  1.0000000 )    f =( -0.3535534 )
                  (  0.0000000  1.0000000  0.0000000 )       ( -0.3535534 )
                  ( -1.0000000  0.0000000  0.0000000 )       ( -0.3535534 )


      isym = 12      90 deg rotation - cart. axis [0,-1,0]       

 cryst.   s(12) = (     0          0          1      )    f =( -0.2500000 )
                  (    -1          0          1      )       ( -0.2500000 )
                  (     0         -1          1      )       ( -0.2500000 )

 cart.    s(12) = (  0.0000000  0.0000000 -1.0000000 )    f =( -0.3535534 )
                  (  0.0000000  1.0000000  0.0000000 )       ( -0.3535534 )
                  (  1.0000000  0.0000000  0.0000000 )       ( -0.3535534 )


      isym = 13     180 deg rotation - cart. axis [0,1,1]        

 cryst.   s(13) = (    -1          0          1      )    f =( -0.2500000 )
                  (     0         -1          1      )       ( -0.2500000 )
                  (     0          0          1      )       ( -0.2500000 )

 cart.    s(13) = ( -1.0000000  0.0000000  0.0000000 )    f =( -0.3535534 )
                  (  0.0000000  0.0000000  1.0000000 )       ( -0.3535534 )
                  (  0.0000000  1.0000000  0.0000000 )       ( -0.3535534 )


      isym = 14     180 deg rotation - cart. axis [0,1,-1]       

 cryst.   s(14) = (     0         -1          0      )    f =( -0.2500000 )
                  (    -1          0          0      )       ( -0.2500000 )
                  (     0          0         -1      )       ( -0.2500000 )

 cart.    s(14) = ( -1.0000000  0.0000000  0.0000000 )    f =( -0.3535534 )
                  (  0.0000000  0.0000000 -1.0000000 )       ( -0.3535534 )
                  (  0.0000000 -1.0000000  0.0000000 )       ( -0.3535534 )


      isym = 15      90 deg rotation - cart. axis [-1,0,0]       

 cryst.   s(15) = (     1          0         -1      )    f =( -0.2500000 )
                  (     1          0          0      )       ( -0.2500000 )
                  (     1         -1          0      )       ( -0.2500000 )

 cart.    s(15) = (  1.0000000  0.0000000  0.0000000 )    f =( -0.3535534 )
                  (  0.0000000  0.0000000  1.0000000 )       ( -0.3535534 )
                  (  0.0000000 -1.0000000  0.0000000 )       ( -0.3535534 )


      isym = 16      90 deg rotation - cart. axis [1,0,0]        

 cryst.   s(16) = (     0          1          0      )    f =( -0.2500000 )
                  (     0          1         -1      )       ( -0.2500000 )
                  (    -1          1          0      )       ( -0.2500000 )

 cart.    s(16) = (  1.0000000  0.0000000  0.0000000 )    f =( -0.3535534 )
                  (  0.0000000  0.0000000 -1.0000000 )       ( -0.3535534 )
                  (  0.0000000  1.0000000  0.0000000 )       ( -0.3535534 )


      isym = 17     120 deg rotation - cart. axis [-1,-1,-1]     

 cryst.   s(17) = (     0          1          0      )
                  (     0          0          1      )
                  (     1          0          0      )

 cart.    s(17) = (  0.0000000  1.0000000  0.0000000 )
                  (  0.0000000  0.0000000  1.0000000 )
                  (  1.0000000  0.0000000  0.0000000 )


      isym = 18     120 deg rotation - cart. axis [-1,1,1]       

 cryst.   s(18) = (     0         -1          0      )
                  (     1         -1          0      )
                  (     0         -1          1      )

 cart.    s(18) = (  0.0000000 -1.0000000  0.0000000 )
                  (  0.0000000  0.0000000  1.0000000 )
                  ( -1.0000000  0.0000000  0.0000000 )


      isym = 19     120 deg rotation - cart. axis [1,1,-1]       

 cryst.   s(19) = (     1          0         -1      )
                  (     0          0         -1      )
                  (     0          1         -1      )

 cart.    s(19) = (  0.0000000  1.0000000  0.0000000 )
                  (  0.0000000  0.0000000 -1.0000000 )
                  ( -1.0000000  0.0000000  0.0000000 )


      isym = 20     120 deg rotation - cart. axis [1,-1,1]       

 cryst.   s(20) = (    -1          0          1      )
                  (    -1          1          0      )
                  (    -1          0          0      )

 cart.    s(20) = (  0.0000000 -1.0000000  0.0000000 )
                  (  0.0000000  0.0000000 -1.0000000 )
                  (  1.0000000  0.0000000  0.0000000 )


      isym = 21     120 deg rotation - cart. axis [1,1,1]        

 cryst.   s(21) = (     0          0          1      )
                  (     1          0          0      )
                  (     0          1          0      )

 cart.    s(21) = (  0.0000000  0.0000000  1.0000000 )
                  (  1.0000000  0.0000000  0.0000000 )
                  (  0.0000000  1.0000000  0.0000000 )


      isym = 22     120 deg rotation - cart. axis [-1,1,-1]      

 cryst.   s(22) = (     0          0         -1      )
                  (     0          1         -1      )
                  (     1          0         -1      )

 cart.    s(22) = (  0.0000000  0.0000000  1.0000000 )
                  ( -1.0000000  0.0000000  0.0000000 )
                  (  0.0000000 -1.0000000  0.0000000 )


      isym = 23     120 deg rotation - cart. axis [1,-1,-1]      

 cryst.   s(23) = (    -1          1          0      )
                  (    -1          0          0      )
                  (    -1          0          1      )

 cart.    s(23) = (  0.0000000  0.0000000 -1.0000000 )
                  ( -1.0000000  0.0000000  0.0000000 )
                  (  0.0000000  1.0000000  0.0000000 )


      isym = 24     120 deg rotation - cart. axis [-1,-1,1]      

 cryst.   s(24) = (     1         -1          0      )
                  (     0         -1          1      )
                  (     0         -1          0      )

 cart.    s(24) = (  0.0000000  0.0000000 -1.0000000 )
                  (  1.0000000  0.0000000  0.0000000 )
                  (  0.0000000 -1.0000000  0.0000000 )


      isym = 25     inversion                                    

 cryst.   s(25) = (    -1          0          0      )    f =( -0.2500000 )
                  (     0         -1          0      )       ( -0.2500000 )
                  (     0          0         -1      )       ( -0.2500000 )

 cart.    s(25) = ( -1.0000000  0.0000000  0.0000000 )    f =( -0.3535534 )
                  (  0.0000000 -1.0000000  0.0000000 )       ( -0.3535534 )
                  (  0.0000000  0.0000000 -1.0000000 )       ( -0.3535534 )


      isym = 26     inv. 180 deg rotation - cart. axis [0,0,1]   

 cryst.   s(26) = (     1          0          0      )    f =( -0.2500000 )
                  (     1          0         -1      )       ( -0.2500000 )
                  (     1         -1          0      )       ( -0.2500000 )

 cart.    s(26) = (  1.0000000  0.0000000  0.0000000 )    f =( -0.3535534 )
                  (  0.0000000  1.0000000  0.0000000 )       ( -0.3535534 )
                  (  0.0000000  0.0000000 -1.0000000 )       ( -0.3535534 )


      isym = 27     inv. 180 deg rotation - cart. axis [0,1,0]   

 cryst.   s(27) = (     0          1         -1      )    f =( -0.2500000 )
                  (     0          1          0      )       ( -0.2500000 )
                  (    -1          1          0      )       ( -0.2500000 )

 cart.    s(27) = (  1.0000000  0.0000000  0.0000000 )    f =( -0.3535534 )
                  (  0.0000000 -1.0000000  0.0000000 )       ( -0.3535534 )
                  (  0.0000000  0.0000000  1.0000000 )       ( -0.3535534 )


      isym = 28     inv. 180 deg rotation - cart. axis [1,0,0]   

 cryst.   s(28) = (     0         -1          1      )    f =( -0.2500000 )
                  (    -1          0          1      )       ( -0.2500000 )
                  (     0          0          1      )       ( -0.2500000 )

 cart.    s(28) = ( -1.0000000  0.0000000  0.0000000 )    f =( -0.3535534 )
                  (  0.0000000  1.0000000  0.0000000 )       ( -0.3535534 )
                  (  0.0000000  0.0000000  1.0000000 )       ( -0.3535534 )


      isym = 29     inv. 180 deg rotation - cart. axis [1,1,0]   

 cryst.   s(29) = (    -1          0          0      )
                  (    -1          1          0      )
                  (    -1          0          1      )

 cart.    s(29) = (  0.0000000 -1.0000000  0.0000000 )
                  ( -1.0000000  0.0000000  0.0000000 )
                  (  0.0000000  0.0000000  1.0000000 )


      isym = 30     inv. 180 deg rotation - cart. axis [1,-1,0]  

 cryst.   s(30) = (     1          0          0      )
                  (     0          0          1      )
                  (     0          1          0      )

 cart.    s(30) = (  0.0000000  1.0000000  0.0000000 )
                  (  1.0000000  0.0000000  0.0000000 )
                  (  0.0000000  0.0000000  1.0000000 )


      isym = 31     inv.  90 deg rotation - cart. axis [0,0,-1]  

 cryst.   s(31) = (     0         -1          1      )
                  (     1         -1          0      )
                  (     0         -1          0      )

 cart.    s(31) = (  0.0000000 -1.0000000  0.0000000 )
                  (  1.0000000  0.0000000  0.0000000 )
                  (  0.0000000  0.0000000 -1.0000000 )


      isym = 32     inv.  90 deg rotation - cart. axis [0,0,1]   

 cryst.   s(32) = (     0          1         -1      )
                  (     0          0         -1      )
                  (     1          0         -1      )

 cart.    s(32) = (  0.0000000  1.0000000  0.0000000 )
                  ( -1.0000000  0.0000000  0.0000000 )
                  (  0.0000000  0.0000000 -1.0000000 )


      isym = 33     inv. 180 deg rotation - cart. axis [1,0,1]   

 cryst.   s(33) = (     1         -1          0      )
                  (     0         -1          0      )
                  (     0         -1          1      )

 cart.    s(33) = (  0.0000000  0.0000000 -1.0000000 )
                  (  0.0000000  1.0000000  0.0000000 )
                  ( -1.0000000  0.0000000  0.0000000 )


      isym = 34     inv. 180 deg rotation - cart. axis [-1,0,1]  

 cryst.   s(34) = (     0          0          1      )
                  (     0          1          0      )
                  (     1          0          0      )

 cart.    s(34) = (  0.0000000  0.0000000  1.0000000 )
                  (  0.0000000  1.0000000  0.0000000 )
                  (  1.0000000  0.0000000  0.0000000 )


      isym = 35     inv.  90 deg rotation - cart. axis [0,1,0]   

 cryst.   s(35) = (    -1          1          0      )
                  (    -1          0          1      )
                  (    -1          0          0      )

 cart.    s(35) = (  0.0000000  0.0000000 -1.0000000 )
                  (  0.0000000 -1.0000000  0.0000000 )
                  (  1.0000000  0.0000000  0.0000000 )


      isym = 36     inv.  90 deg rotation - cart. axis [0,-1,0]  

 cryst.   s(36) = (     0          0         -1      )
                  (     1          0         -1      )
                  (     0          1         -1      )

 cart.    s(36) = (  0.0000000  0.0000000  1.0000000 )
                  (  0.0000000 -1.0000000  0.0000000 )
                  ( -1.0000000  0.0000000  0.0000000 )


      isym = 37     inv. 180 deg rotation - cart. axis [0,1,1]   

 cryst.   s(37) = (     1          0         -1      )
                  (     0          1         -1      )
                  (     0          0         -1      )

 cart.    s(37) = (  1.0000000  0.0000000  0.0000000 )
                  (  0.0000000  0.0000000 -1.0000000 )
                  (  0.0000000 -1.0000000  0.0000000 )


      isym = 38     inv. 180 deg rotation - cart. axis [0,1,-1]  

 cryst.   s(38) = (     0          1          0      )
                  (     1          0          0      )
                  (     0          0          1      )

 cart.    s(38) = (  1.0000000  0.0000000  0.0000000 )
                  (  0.0000000  0.0000000  1.0000000 )
                  (  0.0000000  1.0000000  0.0000000 )


      isym = 39     inv.  90 deg rotation - cart. axis [-1,0,0]  

 cryst.   s(39) = (    -1          0          1      )
                  (    -1          0          0      )
                  (    -1          1          0      )

 cart.    s(39) = ( -1.0000000  0.0000000  0.0000000 )
                  (  0.0000000  0.0000000 -1.0000000 )
                  (  0.0000000  1.0000000  0.0000000 )


      isym = 40     inv.  90 deg rotation - cart. axis [1,0,0]   

 cryst.   s(40) = (     0         -1          0      )
                  (     0         -1          1      )
                  (     1         -1          0      )

 cart.    s(40) = ( -1.0000000  0.0000000  0.0000000 )
                  (  0.0000000  0.0000000  1.0000000 )
                  (  0.0000000 -1.0000000  0.0000000 )


      isym = 41     inv. 120 deg rotation - cart. axis [-1,-1,-1]

 cryst.   s(41) = (     0         -1          0      )    f =( -0.2500000 )
                  (     0          0         -1      )       ( -0.2500000 )
                  (    -1          0          0      )       ( -0.2500000 )

 cart.    s(41) = (  0.0000000 -1.0000000  0.0000000 )    f =( -0.3535534 )
                  (  0.0000000  0.0000000 -1.0000000 )       ( -0.3535534 )
                  ( -1.0000000  0.0000000  0.0000000 )       ( -0.3535534 )


      isym = 42     inv. 120 deg rotation - cart. axis [-1,1,1]  

 cryst.   s(42) = (     0          1          0      )    f =( -0.2500000 )
                  (    -1          1          0      )       ( -0.2500000 )
                  (     0          1         -1      )       ( -0.2500000 )

 cart.    s(42) = (  0.0000000  1.0000000  0.0000000 )    f =( -0.3535534 )
                  (  0.0000000  0.0000000 -1.0000000 )       ( -0.3535534 )
                  (  1.0000000  0.0000000  0.0000000 )       ( -0.3535534 )


      isym = 43     inv. 120 deg rotation - cart. axis [1,1,-1]  

 cryst.   s(43) = (    -1          0          1      )    f =( -0.2500000 )
                  (     0          0          1      )       ( -0.2500000 )
                  (     0         -1          1      )       ( -0.2500000 )

 cart.    s(43) = (  0.0000000 -1.0000000  0.0000000 )    f =( -0.3535534 )
                  (  0.0000000  0.0000000  1.0000000 )       ( -0.3535534 )
                  (  1.0000000  0.0000000  0.0000000 )       ( -0.3535534 )


      isym = 44     inv. 120 deg rotation - cart. axis [1,-1,1]  

 cryst.   s(44) = (     1          0         -1      )    f =( -0.2500000 )
                  (     1         -1          0      )       ( -0.2500000 )
                  (     1          0          0      )       ( -0.2500000 )

 cart.    s(44) = (  0.0000000  1.0000000  0.0000000 )    f =( -0.3535534 )
                  (  0.0000000  0.0000000  1.0000000 )       ( -0.3535534 )
                  ( -1.0000000  0.0000000  0.0000000 )       ( -0.3535534 )


      isym = 45     inv. 120 deg rotation - cart. axis [1,1,1]   

 cryst.   s(45) = (     0          0         -1      )    f =( -0.2500000 )
                  (    -1          0          0      )       ( -0.2500000 )
                  (     0         -1          0      )       ( -0.2500000 )

 cart.    s(45) = (  0.0000000  0.0000000 -1.0000000 )    f =( -0.3535534 )
                  ( -1.0000000  0.0000000  0.0000000 )       ( -0.3535534 )
                  (  0.0000000 -1.0000000  0.0000000 )       ( -0.3535534 )


      isym = 46     inv. 120 deg rotation - cart. axis [-1,1,-1] 

 cryst.   s(46) = (     0          0          1      )    f =( -0.2500000 )
                  (     0         -1          1      )       ( -0.2500000 )
                  (    -1          0          1      )       ( -0.2500000 )

 cart.    s(46) = (  0.0000000  0.0000000 -1.0000000 )    f =( -0.3535534 )
                  (  1.0000000  0.0000000  0.0000000 )       ( -0.3535534 )
                  (  0.0000000  1.0000000  0.0000000 )       ( -0.3535534 )


      isym = 47     inv. 120 deg rotation - cart. axis [1,-1,-1] 

 cryst.   s(47) = (     1         -1          0      )    f =( -0.2500000 )
                  (     1          0          0      )       ( -0.2500000 )
                  (     1          0         -1      )       ( -0.2500000 )

 cart.    s(47) = (  0.0000000  0.0000000  1.0000000 )    f =( -0.3535534 )
                  (  1.0000000  0.0000000  0.0000000 )       ( -0.3535534 )
                  (  0.0000000 -1.0000000  0.0000000 )       ( -0.3535534 )


      isym = 48     inv. 120 deg rotation - cart. axis [-1,-1,1] 

 cryst.   s(48) = (    -1          1          0      )    f =( -0.2500000 )
                  (     0          1         -1      )       ( -0.2500000 )
                  (     0          1          0      )       ( -0.2500000 )

 cart.    s(48) = (  0.0000000  0.0000000  1.0000000 )    f =( -0.3535534 )
                  ( -1.0000000  0.0000000  0.0000000 )       ( -0.3535534 )
                  (  0.0000000  1.0000000  0.0000000 )       ( -0.3535534 )


   Cartesian axes

     site n.     atom                  positions (alat units)
         1           Si  tau(   1) = (   0.0000000   0.0000000   0.0000000  )
         2           Si  tau(   2) = (   0.3535534   0.3535534   0.3535534  )

   Crystallographic axes

     site n.     atom                  positions (cryst. coord.)
         1           Si  tau(   1) = (  0.0000000  0.0000000  0.0000000  )
         2           Si  tau(   2) = (  0.2500000  0.2500000  0.2500000  )

     number of k points=    91
                       cart. coord. in units 2pi/alat
        k(    1) = (   0.3535534  -0.3535534   0.3535534), wk =   0.0219780
        k(    2) = (   0.3358757  -0.3358757   0.3358757), wk =   0.0219780
        k(    3) = (   0.3181981  -0.3181981   0.3181981), wk =   0.0219780
        k(    4) = (   0.3005204  -0.3005204   0.3005204), wk =   0.0219780
        k(    5) = (   0.2828427  -0.2828427   0.2828427), wk =   0.0219780
        k(    6) = (   0.2651650  -0.2651650   0.2651650), wk =   0.0219780
        k(    7) = (   0.2474874  -0.2474874   0.2474874), wk =   0.0219780
        k(    8) = (   0.2298097  -0.2298097   0.2298097), wk =   0.0219780
        k(    9) = (   0.2121320  -0.2121320   0.2121320), wk =   0.0219780
        k(   10) = (   0.1944544  -0.1944544   0.1944544), wk =   0.0219780
        k(   11) = (   0.1767767  -0.1767767   0.1767767), wk =   0.0219780
        k(   12) = (   0.1590990  -0.1590990   0.1590990), wk =   0.0219780
        k(   13) = (   0.1414214  -0.1414214   0.1414214), wk =   0.0219780
        k(   14) = (   0.1237437  -0.1237437   0.1237437), wk =   0.0219780
        k(   15) = (   0.1060660  -0.1060660   0.1060660), wk =   0.0219780
        k(   16) = (   0.0883883  -0.0883883   0.0883883), wk =   0.0219780
        k(   17) = (   0.0707107  -0.0707107   0.0707107), wk =   0.0219780
        k(   18) = (   0.0530330  -0.0530330   0.0530330), wk =   0.0219780
        k(   19) = (   0.0353553  -0.0353553   0.0353553), wk =   0.0219780
        k(   20) = (   0.0176777  -0.0176777   0.0176777), wk =   0.0219780
        k(   21) = (   0.0000000   0.0000000   0.0000000), wk =   0.0219780
        k(   22) = (   0.0000000  -0.0235702   0.0000000), wk =   0.0219780
        k(   23) = (   0.0000000  -0.0471405   0.0000000), wk =   0.0219780
        k(   24) = (   0.0000000  -0.0707107   0.0000000), wk =   0.0219780
        k(   25) = (   0.0000000  -0.0942809   0.0000000), wk =   0.0219780
        k(   26) = (   0.0000000  -0.1178511   0.0000000), wk =   0.0219780
        k(   27) = (   0.0000000  -0.1414214   0.0000000), wk =   0.0219780
        k(   28) = (   0.0000000  -0.1649916   0.0000000), wk =   0.0219780
        k(   29) = (   0.0000000  -0.1885618   0.0000000), wk =   0.0219780
        k(   30) = (   0.0000000  -0.2121320   0.0000000), wk =   0.0219780
        k(   31) = (   0.0000000  -0.2357023   0.0000000), wk =   0.0219780
        k(   32) = (   0.0000000  -0.2592725   0.0000000), wk =   0.0219780
        k(   33) = (   0.0000000  -0.2828427   0.0000000), wk =   0.0219780
        k(   34) = (   0.0000000  -0.3064129   0.0000000), wk =   0.0219780
        k(   35) = (   0.0000000  -0.3299832   0.0000000), wk =   0.0219780
        k(   36) = (   0.0000000  -0.3535534   0.0000000), wk =   0.0219780
        k(   37) = (   0.0000000  -0.3771236   0.0000000), wk =   0.0219780
        k(   38) = (   0.0000000  -0.4006938   0.0000000), wk =   0.0219780
        k(   39) = (   0.0000000  -0.4242641   0.0000000), wk =   0.0219780
        k(   40) = (   0.0000000  -0.4478343   0.0000000), wk =   0.0219780
        k(   41) = (   0.0000000  -0.4714045   0.0000000), wk =   0.0219780
        k(   42) = (   0.0000000  -0.4949747   0.0000000), wk =   0.0219780
        k(   43) = (   0.0000000  -0.5185450   0.0000000), wk =   0.0219780
        k(   44) = (   0.0000000  -0.5421152   0.0000000), wk =   0.0219780
        k(   45) = (   0.0000000  -0.5656854   0.0000000), wk =   0.0219780
        k(   46) = (   0.0000000  -0.5892557   0.0000000), wk =   0.0219780
        k(   47) = (   0.0000000  -0.6128259   0.0000000), wk =   0.0219780
        k(   48) = (   0.0000000  -0.6363961   0.0000000), wk =   0.0219780
        k(   49) = (   0.0000000  -0.6599663   0.0000000), wk =   0.0219780
        k(   50) = (   0.0000000  -0.6835366   0.0000000), wk =   0.0219780
        k(   51) = (   0.0000000  -0.7071068   0.0000000), wk =   0.0219780
        k(   52) = (   0.0176777  -0.7071068   0.0176777), wk =   0.0219780
        k(   53) = (   0.0353553  -0.7071068   0.0353553), wk =   0.0219780
        k(   54) = (   0.0530330  -0.7071068   0.0530330), wk =   0.0219780
        k(   55) = (   0.0707107  -0.7071068   0.0707107), wk =   0.0219780
        k(   56) = (   0.0883883  -0.7071068   0.0883883), wk =   0.0219780
        k(   57) = (   0.1060660  -0.7071068   0.1060660), wk =   0.0219780
        k(   58) = (   0.1237437  -0.7071068   0.1237437), wk =   0.0219780
        k(   59) = (   0.1414214  -0.7071068   0.1414214), wk =   0.0219780
        k(   60) = (   0.1590990  -0.7071068   0.1590990), wk =   0.0219780
        k(   61) = (   0.1767767  -0.7071068   0.1767767), wk =   0.0219780
        k(   62) = (   0.1708841  -0.6835366   0.1708841), wk =   0.0219780
        k(   63) = (   0.1649916  -0.6599663   0.1649916), wk =   0.0219780
        k(   64) = (   0.1590990  -0.6363961   0.1590990), wk =   0.0219780
        k(   65) = (   0.1532065  -0.6128259   0.1532065), wk =   0.0219780
        k(   66) = (   0.1473139  -0.5892557   0.1473139), wk =   0.0219780
        k(   67) = (   0.1414214  -0.5656854   0.1414214), wk =   0.0219780
        k(   68) = (   0.1355288  -0.5421152   0.1355288), wk =   0.0219780
        k(   69) = (   0.1296362  -0.5185450   0.1296362), wk =   0.0219780
        k(   70) = (   0.1237437  -0.4949747   0.1237437), wk =   0.0219780
        k(   71) = (   0.1178511  -0.4714045   0.1178511), wk =   0.0219780
        k(   72) = (   0.1119586  -0.4478343   0.1119586), wk =   0.0219780
        k(   73) = (   0.1060660  -0.4242641   0.1060660), wk =   0.0219780
        k(   74) = (   0.1001735  -0.4006938   0.1001735), wk =   0.0219780
        k(   75) = (   0.0942809  -0.3771236   0.0942809), wk =   0.0219780
        k(   76) = (   0.0883883  -0.3535534   0.0883883), wk =   0.0219780
        k(   77) = (   0.0824958  -0.3299832   0.0824958), wk =   0.0219780
        k(   78) = (   0.0766032  -0.3064129   0.0766032), wk =   0.0219780
        k(   79) = (   0.0707107  -0.2828427   0.0707107), wk =   0.0219780
        k(   80) = (   0.0648181  -0.2592725   0.0648181), wk =   0.0219780
        k(   81) = (   0.0589256  -0.2357023   0.0589256), wk =   0.0219780
        k(   82) = (   0.0530330  -0.2121320   0.0530330), wk =   0.0219780
        k(   83) = (   0.0471405  -0.1885618   0.0471405), wk =   0.0219780
        k(   84) = (   0.0412479  -0.1649916   0.0412479), wk =   0.0219780
        k(   85) = (   0.0353553  -0.1414214   0.0353553), wk =   0.0219780
        k(   86) = (   0.0294628  -0.1178511   0.0294628), wk =   0.0219780
        k(   87) = (   0.0235702  -0.0942809   0.0235702), wk =   0.0219780
        k(   88) = (   0.0176777  -0.0707107   0.0176777), wk =   0.0219780
        k(   89) = (   0.0117851  -0.0471405   0.0117851), wk =   0.0219780
        k(   90) = (   0.0058926  -0.0235702   0.0058926), wk =   0.0219780
        k(   91) = (   0.0000000   0.0000000   0.0000000), wk =   0.0219780

                       cryst. coord.
        k(    1) = (   0.0000000   0.5000000   0.0000000), wk =   0.0219780
        k(    2) = (   0.0000000   0.4750000   0.0000000), wk =   0.0219780
        k(    3) = (   0.0000000   0.4500000   0.0000000), wk =   0.0219780
        k(    4) = (   0.0000000   0.4250000   0.0000000), wk =   0.0219780
        k(    5) = (   0.0000000   0.4000000   0.0000000), wk =   0.0219780
        k(    6) = (   0.0000000   0.3750000   0.0000000), wk =   0.0219780
        k(    7) = (   0.0000000   0.3500000   0.0000000), wk =   0.0219780
        k(    8) = (   0.0000000   0.3250000   0.0000000), wk =   0.0219780
        k(    9) = (   0.0000000   0.3000000   0.0000000), wk =   0.0219780
        k(   10) = (   0.0000000   0.2750000   0.0000000), wk =   0.0219780
        k(   11) = (   0.0000000   0.2500000   0.0000000), wk =   0.0219780
        k(   12) = (   0.0000000   0.2250000   0.0000000), wk =   0.0219780
        k(   13) = (   0.0000000   0.2000000   0.0000000), wk =   0.0219780
        k(   14) = (   0.0000000   0.1750000   0.0000000), wk =   0.0219780
        k(   15) = (   0.0000000   0.1500000   0.0000000), wk =   0.0219780
        k(   16) = (   0.0000000   0.1250000   0.0000000), wk =   0.0219780
        k(   17) = (   0.0000000   0.1000000   0.0000000), wk =   0.0219780
        k(   18) = (   0.0000000   0.0750000   0.0000000), wk =   0.0219780
        k(   19) = (   0.0000000   0.0500000   0.0000000), wk =   0.0219780
        k(   20) = (   0.0000000   0.0250000   0.0000000), wk =   0.0219780
        k(   21) = (   0.0000000   0.0000000   0.0000000), wk =   0.0219780
        k(   22) = (  -0.0166667   0.0000000  -0.0166667), wk =   0.0219780
        k(   23) = (  -0.0333333   0.0000000  -0.0333333), wk =   0.0219780
        k(   24) = (  -0.0500000   0.0000000  -0.0500000), wk =   0.0219780
        k(   25) = (  -0.0666667   0.0000000  -0.0666667), wk =   0.0219780
        k(   26) = (  -0.0833333   0.0000000  -0.0833333), wk =   0.0219780
        k(   27) = (  -0.1000000   0.0000000  -0.1000000), wk =   0.0219780
        k(   28) = (  -0.1166667   0.0000000  -0.1166667), wk =   0.0219780
        k(   29) = (  -0.1333333   0.0000000  -0.1333333), wk =   0.0219780
        k(   30) = (  -0.1500000   0.0000000  -0.1500000), wk =   0.0219780
        k(   31) = (  -0.1666667   0.0000000  -0.1666667), wk =   0.0219780
        k(   32) = (  -0.1833333   0.0000000  -0.1833333), wk =   0.0219780
        k(   33) = (  -0.2000000   0.0000000  -0.2000000), wk =   0.0219780
        k(   34) = (  -0.2166667   0.0000000  -0.2166667), wk =   0.0219780
        k(   35) = (  -0.2333333   0.0000000  -0.2333333), wk =   0.0219780
        k(   36) = (  -0.2500000   0.0000000  -0.2500000), wk =   0.0219780
        k(   37) = (  -0.2666667   0.0000000  -0.2666667), wk =   0.0219780
        k(   38) = (  -0.2833333   0.0000000  -0.2833333), wk =   0.0219780
        k(   39) = (  -0.3000000   0.0000000  -0.3000000), wk =   0.0219780
        k(   40) = (  -0.3166667   0.0000000  -0.3166667), wk =   0.0219780
        k(   41) = (  -0.3333333   0.0000000  -0.3333333), wk =   0.0219780
        k(   42) = (  -0.3500000   0.0000000  -0.3500000), wk =   0.0219780
        k(   43) = (  -0.3666667   0.0000000  -0.3666667), wk =   0.0219780
        k(   44) = (  -0.3833333   0.0000000  -0.3833333), wk =   0.0219780
        k(   45) = (  -0.4000000   0.0000000  -0.4000000), wk =   0.0219780
        k(   46) = (  -0.4166667   0.0000000  -0.4166667), wk =   0.0219780
        k(   47) = (  -0.4333333   0.0000000  -0.4333333), wk =   0.0219780
        k(   48) = (  -0.4500000   0.0000000  -0.4500000), wk =   0.0219780
        k(   49) = (  -0.4666667   0.0000000  -0.4666667), wk =   0.0219780
        k(   50) = (  -0.4833333   0.0000000  -0.4833333), wk =   0.0219780
        k(   51) = (  -0.5000000   0.0000000  -0.5000000), wk =   0.0219780
        k(   52) = (  -0.4875000   0.0250000  -0.4875000), wk =   0.0219780
        k(   53) = (  -0.4750000   0.0500000  -0.4750000), wk =   0.0219780
        k(   54) = (  -0.4625000   0.0750000  -0.4625000), wk =   0.0219780
        k(   55) = (  -0.4500000   0.1000000  -0.4500000), wk =   0.0219780
        k(   56) = (  -0.4375000   0.1250000  -0.4375000), wk =   0.0219780
        k(   57) = (  -0.4250000   0.1500000  -0.4250000), wk =   0.0219780
        k(   58) = (  -0.4125000   0.1750000  -0.4125000), wk =   0.0219780
        k(   59) = (  -0.4000000   0.2000000  -0.4000000), wk =   0.0219780
        k(   60) = (  -0.3875000   0.2250000  -0.3875000), wk =   0.0219780
        k(   61) = (  -0.3750000   0.2500000  -0.3750000), wk =   0.0219780
        k(   62) = (  -0.3625000   0.2416667  -0.3625000), wk =   0.0219780
        k(   63) = (  -0.3500000   0.2333333  -0.3500000), wk =   0.0219780
        k(   64) = (  -0.3375000   0.2250000  -0.3375000), wk =   0.0219780
        k(   65) = (  -0.3250000   0.2166667  -0.3250000), wk =   0.0219780
        k(   66) = (  -0.3125000   0.2083333  -0.3125000), wk =   0.0219780
        k(   67) = (  -0.3000000   0.2000000  -0.3000000), wk =   0.0219780
        k(   68) = (  -0.2875000   0.1916667  -0.2875000), wk =   0.0219780
        k(   69) = (  -0.2750000   0.1833333  -0.2750000), wk =   0.0219780
        k(   70) = (  -0.2625000   0.1750000  -0.2625000), wk =   0.0219780
        k(   71) = (  -0.2500000   0.1666667  -0.2500000), wk =   0.0219780
        k(   72) = (  -0.2375000   0.1583333  -0.2375000), wk =   0.0219780
        k(   73) = (  -0.2250000   0.1500000  -0.2250000), wk =   0.0219780
        k(   74) = (  -0.2125000   0.1416667  -0.2125000), wk =   0.0219780
        k(   75) = (  -0.2000000   0.1333333  -0.2000000), wk =   0.0219780
        k(   76) = (  -0.1875000   0.1250000  -0.1875000), wk =   0.0219780
        k(   77) = (  -0.1750000   0.1166667  -0.1750000), wk =   0.0219780
        k(   78) = (  -0.1625000   0.1083333  -0.1625000), wk =   0.0219780
        k(   79) = (  -0.1500000   0.1000000  -0.1500000), wk =   0.0219780
        k(   80) = (  -0.1375000   0.0916667  -0.1375000), wk =   0.0219780
        k(   81) = (  -0.1250000   0.0833333  -0.1250000), wk =   0.0219780
        k(   82) = (  -0.1125000   0.0750000  -0.1125000), wk =   0.0219780
        k(   83) = (  -0.1000000   0.0666667  -0.1000000), wk =   0.0219780
        k(   84) = (  -0.0875000   0.0583333  -0.0875000), wk =   0.0219780
        k(   85) = (  -0.0750000   0.0500000  -0.0750000), wk =   0.0219780
        k(   86) = (  -0.0625000   0.0416667  -0.0625000), wk =   0.0219780
        k(   87) = (  -0.0500000   0.0333333  -0.0500000), wk =   0.0219780
        k(   88) = (  -0.0375000   0.0250000  -0.0375000), wk =   0.0219780
        k(   89) = (  -0.0250000   0.0166667  -0.0250000), wk =   0.0219780
        k(   90) = (  -0.0125000   0.0083333  -0.0125000), wk =   0.0219780
        k(   91) = (   0.0000000   0.0000000   0.0000000), wk =   0.0219780

     Dense  grid:    17261 G-vectors     FFT dimensions: (  40,  40,  40)

     Smooth grid:     6183 G-vectors     FFT dimensions: (  32,  32,  32)

     Dynamical RAM for                 wfc:       0.12 MB

     Dynamical RAM for     wfc (w. buffer):       0.12 MB

     Dynamical RAM for           str. fact:       0.26 MB

     Dynamical RAM for           local pot:       0.00 MB

     Dynamical RAM for          nlocal pot:       0.42 MB

     Dynamical RAM for                qrad:       1.24 MB

     Dynamical RAM for          rho,v,vnew:       2.25 MB

     Dynamical RAM for           G-vectors:       1.03 MB

     Dynamical RAM for          h,s,v(r/c):       0.02 MB

     Dynamical RAM for          <psi|beta>:       0.01 MB

     Dynamical RAM for                 psi:       0.23 MB

     Dynamical RAM for                hpsi:       0.23 MB

     Dynamical RAM for                spsi:       0.23 MB

     Dynamical RAM for      wfcinit/wfcrot:       0.24 MB

     Dynamical RAM for           addusdens:      49.52 MB

     Estimated static dynamical RAM per process >       8.30 MB

     Estimated max dynamical RAM per process >      57.82 MB

     The potential is recalculated from file :
     ./si.save/charge-density

     Starting wfcs are    8 randomized atomic wfcs +    2 random wfcs

     Band Structure Calculation
     Davidson diagonalization with overlap

     Computing kpt #:     1  of    91
     total cpu time spent up to now is        0.8 secs

     Computing kpt #:     2  of    91
     total cpu time spent up to now is        1.0 secs

     Computing kpt #:     3  of    91
     total cpu time spent up to now is        1.2 secs

     Computing kpt #:     4  of    91
     total cpu time spent up to now is        1.4 secs

     Computing kpt #:     5  of    91
     total cpu time spent up to now is        1.6 secs

     Computing kpt #:     6  of    91
     total cpu time spent up to now is        1.8 secs

     Computing kpt #:     7  of    91
     total cpu time spent up to now is        2.1 secs

     Computing kpt #:     8  of    91
     total cpu time spent up to now is        2.3 secs

     Computing kpt #:     9  of    91
     total cpu time spent up to now is        2.5 secs

     Computing kpt #:    10  of    91
     total cpu time spent up to now is        2.7 secs

     Computing kpt #:    11  of    91
     total cpu time spent up to now is        2.9 secs

     Computing kpt #:    12  of    91
     total cpu time spent up to now is        3.1 secs

     Computing kpt #:    13  of    91
     total cpu time spent up to now is        3.3 secs

     Computing kpt #:    14  of    91
     total cpu time spent up to now is        3.5 secs

     Computing kpt #:    15  of    91
     total cpu time spent up to now is        3.7 secs

     Computing kpt #:    16  of    91
     total cpu time spent up to now is        3.9 secs

     Computing kpt #:    17  of    91
     total cpu time spent up to now is        4.1 secs

     Computing kpt #:    18  of    91
     total cpu time spent up to now is        4.3 secs

     Computing kpt #:    19  of    91
     total cpu time spent up to now is        4.5 secs

     Computing kpt #:    20  of    91
     total cpu time spent up to now is        4.7 secs

     Computing kpt #:    21  of    91
     total cpu time spent up to now is        4.8 secs

     Computing kpt #:    22  of    91
     total cpu time spent up to now is        5.1 secs

     Computing kpt #:    23  of    91
     total cpu time spent up to now is        5.3 secs

     Computing kpt #:    24  of    91
     total cpu time spent up to now is        5.5 secs

     Computing kpt #:    25  of    91
     total cpu time spent up to now is        5.7 secs

     Computing kpt #:    26  of    91
     total cpu time spent up to now is        5.9 secs

     Computing kpt #:    27  of    91
     total cpu time spent up to now is        6.1 secs

     Computing kpt #:    28  of    91
     total cpu time spent up to now is        6.3 secs

     Computing kpt #:    29  of    91
     total cpu time spent up to now is        6.5 secs

     Computing kpt #:    30  of    91
     total cpu time spent up to now is        6.7 secs

     Computing kpt #:    31  of    91
     total cpu time spent up to now is        6.9 secs

     Computing kpt #:    32  of    91
     total cpu time spent up to now is        7.1 secs

     Computing kpt #:    33  of    91
     total cpu time spent up to now is        7.3 secs

     Computing kpt #:    34  of    91
     total cpu time spent up to now is        7.5 secs

     Computing kpt #:    35  of    91
     total cpu time spent up to now is        7.6 secs

     Computing kpt #:    36  of    91
     total cpu time spent up to now is        7.8 secs

     Computing kpt #:    37  of    91
     total cpu time spent up to now is        8.0 secs

     Computing kpt #:    38  of    91
     total cpu time spent up to now is        8.2 secs

     Computing kpt #:    39  of    91
     total cpu time spent up to now is        8.3 secs

     Computing kpt #:    40  of    91
     total cpu time spent up to now is        8.5 secs

     Computing kpt #:    41  of    91
     total cpu time spent up to now is        8.6 secs

     Computing kpt #:    42  of    91
     total cpu time spent up to now is        8.8 secs

     Computing kpt #:    43  of    91
     total cpu time spent up to now is        9.0 secs

     Computing kpt #:    44  of    91
     total cpu time spent up to now is        9.2 secs

     Computing kpt #:    45  of    91
     total cpu time spent up to now is        9.4 secs

     Computing kpt #:    46  of    91
     total cpu time spent up to now is        9.6 secs

     Computing kpt #:    47  of    91
     total cpu time spent up to now is        9.8 secs

     Computing kpt #:    48  of    91
     c_bands:  1 eigenvalues not converged
     total cpu time spent up to now is       10.2 secs

     Computing kpt #:    49  of    91
     total cpu time spent up to now is       10.4 secs

     Computing kpt #:    50  of    91
     total cpu time spent up to now is       10.6 secs

     Computing kpt #:    51  of    91
     total cpu time spent up to now is       10.8 secs

     Computing kpt #:    52  of    91
     total cpu time spent up to now is       11.0 secs

     Computing kpt #:    53  of    91
     total cpu time spent up to now is       11.2 secs

     Computing kpt #:    54  of    91
     total cpu time spent up to now is       11.4 secs

     Computing kpt #:    55  of    91
     total cpu time spent up to now is       11.6 secs

     Computing kpt #:    56  of    91
     total cpu time spent up to now is       11.8 secs

     Computing kpt #:    57  of    91
     total cpu time spent up to now is       11.9 secs

     Computing kpt #:    58  of    91
     total cpu time spent up to now is       12.1 secs

     Computing kpt #:    59  of    91
     total cpu time spent up to now is       12.2 secs

     Computing kpt #:    60  of    91
     total cpu time spent up to now is       12.4 secs

     Computing kpt #:    61  of    91
     total cpu time spent up to now is       12.5 secs

     Computing kpt #:    62  of    91
     total cpu time spent up to now is       12.7 secs

     Computing kpt #:    63  of    91
     total cpu time spent up to now is       12.8 secs

     Computing kpt #:    64  of    91
     total cpu time spent up to now is       13.0 secs

     Computing kpt #:    65  of    91
     total cpu time spent up to now is       13.2 secs

     Computing kpt #:    66  of    91
     total cpu time spent up to now is       13.3 secs

     Computing kpt #:    67  of    91
     total cpu time spent up to now is       13.5 secs

     Computing kpt #:    68  of    91
     total cpu time spent up to now is       13.7 secs

     Computing kpt #:    69  of    91
     total cpu time spent up to now is       13.9 secs

     Computing kpt #:    70  of    91
     total cpu time spent up to now is       14.1 secs

     Computing kpt #:    71  of    91
     total cpu time spent up to now is       14.3 secs

     Computing kpt #:    72  of    91
     total cpu time spent up to now is       14.5 secs

     Computing kpt #:    73  of    91
     total cpu time spent up to now is       14.7 secs

     Computing kpt #:    74  of    91
     total cpu time spent up to now is       14.8 secs

     Computing kpt #:    75  of    91
     total cpu time spent up to now is       15.0 secs

     Computing kpt #:    76  of    91
     total cpu time spent up to now is       15.2 secs

     Computing kpt #:    77  of    91
     total cpu time spent up to now is       15.3 secs

     Computing kpt #:    78  of    91
     total cpu time spent up to now is       15.5 secs

     Computing kpt #:    79  of    91
     total cpu time spent up to now is       15.7 secs

     Computing kpt #:    80  of    91
     total cpu time spent up to now is       15.9 secs

     Computing kpt #:    81  of    91
     total cpu time spent up to now is       16.0 secs

     Computing kpt #:    82  of    91
     total cpu time spent up to now is       16.2 secs

     Computing kpt #:    83  of    91
     total cpu time spent up to now is       16.4 secs

     Computing kpt #:    84  of    91
     total cpu time spent up to now is       16.6 secs

     Computing kpt #:    85  of    91
     total cpu time spent up to now is       16.8 secs

     Computing kpt #:    86  of    91
     total cpu time spent up to now is       17.0 secs

     Computing kpt #:    87  of    91
     total cpu time spent up to now is       17.1 secs

     Computing kpt #:    88  of    91
     total cpu time spent up to now is       17.3 secs

     Computing kpt #:    89  of    91
     total cpu time spent up to now is       17.5 secs

     Computing kpt #:    90  of    91
     total cpu time spent up to now is       17.7 secs

     Computing kpt #:    91  of    91
     total cpu time spent up to now is       17.9 secs

     ethr =  5.00E-12,  avg # of iterations = 48.1

     total cpu time spent up to now is       17.9 secs

     End of band structure calculation

          k = 0.3536-0.3536 0.3536 (   778 PWs)   bands (ev):

    -3.5542  -0.8874   4.8051   4.8051   7.4493   9.3366   9.3366  13.6931
    16.4903  16.4903

          k = 0.3359-0.3359 0.3359 (   769 PWs)   bands (ev):

    -3.5884  -0.8380   4.8096   4.8096   7.4544   9.3415   9.3415  13.7007
    16.2303  16.2303

          k = 0.3182-0.3182 0.3182 (   766 PWs)   bands (ev):

    -3.6838  -0.6969   4.8229   4.8229   7.4699   9.3558   9.3558  13.7225
    15.7968  15.7968

          k = 0.3005-0.3005 0.3005 (   769 PWs)   bands (ev):

    -3.8240  -0.4807   4.8451   4.8451   7.4956   9.3785   9.3785  13.7559
    15.3549  15.3549

          k = 0.2828-0.2828 0.2828 (   769 PWs)   bands (ev):

    -3.9918  -0.2068   4.8762   4.8762   7.5315   9.4074   9.4074  13.7950
    14.9307  14.9307

          k = 0.2652-0.2652 0.2652 (   763 PWs)   bands (ev):

    -4.1735   0.1108   4.9160   4.9160   7.5773   9.4398   9.4398  13.8266
    14.5336  14.5336

          k = 0.2475-0.2475 0.2475 (   769 PWs)   bands (ev):

    -4.3595   0.4624   4.9644   4.9644   7.6328   9.4714   9.4714  13.8207
    14.1699  14.1699

          k = 0.2298-0.2298 0.2298 (   769 PWs)   bands (ev):

    -4.5436   0.8410   5.0213   5.0213   7.6976   9.4972   9.4972  13.7208
    13.8462  13.8462

          k = 0.2121-0.2121 0.2121 (   769 PWs)   bands (ev):

    -4.7214   1.2417   5.0864   5.0864   7.7712   9.5108   9.5108  13.4816
    13.5692  13.5692

          k = 0.1945-0.1945 0.1945 (   769 PWs)   bands (ev):

    -4.8901   1.6610   5.1593   5.1593   7.8528   9.5055   9.5055  13.1339
    13.3460  13.3460

          k = 0.1768-0.1768 0.1768 (   769 PWs)   bands (ev):

    -5.0478   2.0958   5.2394   5.2394   7.9415   9.4753   9.4753  12.7305
    13.1826  13.1826

          k = 0.1591-0.1591 0.1591 (   778 PWs)   bands (ev):

    -5.1929   2.5432   5.3257   5.3257   8.0360   9.4164   9.4164  12.3005
    13.0821  13.0821

          k = 0.1414-0.1414 0.1414 (   776 PWs)   bands (ev):

    -5.3246   3.0005   5.4172   5.4172   8.1344   9.3290   9.3290  11.8572
    13.0441  13.0441

          k = 0.1237-0.1237 0.1237 (   773 PWs)   bands (ev):

    -5.4420   3.4643   5.5123   5.5123   8.2344   9.2177   9.2177  11.4073
    13.0631  13.0631

          k = 0.1061-0.1061 0.1061 (   773 PWs)   bands (ev):

    -5.5446   3.9304   5.6086   5.6086   8.3327   9.0902   9.0902  10.9561
    13.1297  13.1297

          k = 0.0884-0.0884 0.0884 (   770 PWs)   bands (ev):

    -5.6320   4.3927   5.7031   5.7031   8.4249   8.9563   8.9563  10.5103
    13.2320  13.2320

          k = 0.0707-0.0707 0.0707 (   752 PWs)   bands (ev):

    -5.7038   4.8419   5.7921   5.7921   8.5047   8.8264   8.8264  10.0807
    13.3555  13.3555

          k = 0.0530-0.0530 0.0530 (   749 PWs)   bands (ev):

    -5.7599   5.2623   5.8704   5.8704   8.5626   8.7109   8.7109   9.6873
    13.4834  13.4834

          k = 0.0354-0.0354 0.0354 (   743 PWs)   bands (ev):

    -5.8001   5.6267   5.9324   5.9324   8.5846   8.6194   8.6194   9.3665
    13.5971  13.5971

          k = 0.0177-0.0177 0.0177 (   749 PWs)   bands (ev):

    -5.8243   5.8883   5.9725   5.9725   8.5606   8.5606   8.5629   9.1678
    13.6766  13.6766

          k = 0.0000 0.0000 0.0000 (   749 PWs)   bands (ev):

    -5.8324   5.9865   5.9865   5.9865   8.5402   8.5402   8.5402   9.1066
    13.7054  13.7054

          k = 0.0000-0.0236 0.0000 (   749 PWs)   bands (ev):

    -5.8276   5.9515   5.9659   5.9659   8.5283   8.5666   8.5666   9.1408
    13.6658  13.7107

          k = 0.0000-0.0471 0.0000 (   749 PWs)   bands (ev):

    -5.8133   5.8513   5.9067   5.9067   8.4933   8.6435   8.6435   9.2384
    13.5530  13.7266

          k = 0.0000-0.0707 0.0000 (   745 PWs)   bands (ev):

    -5.7894   5.6969   5.8154   5.8154   8.4370   8.7643   8.7643   9.3866
    13.3826  13.7532

          k = 0.0000-0.0943 0.0000 (   757 PWs)   bands (ev):

    -5.7560   5.5011   5.6996   5.6996   8.3620   8.9210   8.9210   9.5689
    13.1743  13.7903

          k = 0.0000-0.1179 0.0000 (   753 PWs)   bands (ev):

    -5.7131   5.2753   5.5670   5.5670   8.2717   9.1063   9.1063   9.7676
    12.9498  13.8381

          k = 0.0000-0.1414 0.0000 (   769 PWs)   bands (ev):

    -5.6607   5.0283   5.4235   5.4235   8.1692   9.3138   9.3138   9.9633
    12.7315  13.8964

          k = 0.0000-0.1650 0.0000 (   769 PWs)   bands (ev):

    -5.5989   4.7664   5.2740   5.2740   8.0580   9.5388   9.5388  10.1319
    12.5471  13.9654

          k = 0.0000-0.1886 0.0000 (   769 PWs)   bands (ev):

    -5.5276   4.4939   5.1218   5.1218   7.9409   9.7777   9.7777  10.2428
    12.4291  14.0449

          k = 0.0000-0.2121 0.0000 (   769 PWs)   bands (ev):

    -5.4470   4.2140   4.9696   4.9696   7.8206  10.0278  10.0278  10.2664
    12.4088  14.1351

          k = 0.0000-0.2357 0.0000 (   777 PWs)   bands (ev):

    -5.3571   3.9286   4.8192   4.8192   7.6993  10.1932  10.2869  10.2869
    12.4971  14.2358

          k = 0.0000-0.2593 0.0000 (   777 PWs)   bands (ev):

    -5.2579   3.6395   4.6720   4.6720   7.5790  10.0412  10.5537  10.5537
    12.6774  14.3471

          k = 0.0000-0.2828 0.0000 (   785 PWs)   bands (ev):

    -5.1496   3.3476   4.5292   4.5292   7.4614   9.8388  10.8268  10.8268
    12.9217  14.4685

          k = 0.0000-0.3064 0.0000 (   769 PWs)   bands (ev):

    -5.0321   3.0540   4.3916   4.3916   7.3479   9.6093  11.1055  11.1055
    13.2074  14.6010

          k = 0.0000-0.3300 0.0000 (   769 PWs)   bands (ev):

    -4.9056   2.7591   4.2598   4.2598   7.2395   9.3678  11.3886  11.3886
    13.5194  14.7439

          k = 0.0000-0.3536 0.0000 (   769 PWs)   bands (ev):

    -4.7702   2.4635   4.1345   4.1345   7.1372   9.1238  11.6758  11.6758
    13.8482  14.8973

          k = 0.0000-0.3771 0.0000 (   769 PWs)   bands (ev):

    -4.6260   2.1678   4.0159   4.0159   7.0420   8.8830  11.9665  11.9665
    14.1880  15.0612

          k = 0.0000-0.4007 0.0000 (   773 PWs)   bands (ev):

    -4.4730   1.8723   3.9044   3.9044   6.9547   8.6490  12.2605  12.2605
    14.5345  15.2355

          k = 0.0000-0.4243 0.0000 (   769 PWs)   bands (ev):

    -4.3115   1.5774   3.8004   3.8004   6.8756   8.4246  12.5575  12.5575
    14.8850  15.4204

          k = 0.0000-0.4478 0.0000 (   769 PWs)   bands (ev):

    -4.1415   1.2836   3.7040   3.7040   6.8055   8.2112  12.8569  12.8569
    15.2370  15.6156

          k = 0.0000-0.4714 0.0000 (   769 PWs)   bands (ev):

    -3.9632   0.9913   3.6155   3.6155   6.7448   8.0100  13.1588  13.1588
    15.5888  15.8212

          k = 0.0000-0.4950 0.0000 (   769 PWs)   bands (ev):

    -3.7767   0.7007   3.5350   3.5350   6.6940   7.8216  13.4629  13.4629
    15.9389  16.0372

          k = 0.0000-0.5185 0.0000 (   765 PWs)   bands (ev):

    -3.5822   0.4124   3.4626   3.4626   6.6535   7.6466  13.7689  13.7689
    16.2634  16.2858

          k = 0.0000-0.5421 0.0000 (   765 PWs)   bands (ev):

    -3.3800   0.1268   3.3986   3.3986   6.6236   7.4852  14.0765  14.0765
    16.5000  16.6283

          k = 0.0000-0.5657 0.0000 (   761 PWs)   bands (ev):

    -3.1701  -0.1558   3.3429   3.3429   6.6047   7.3377  14.3849  14.3849
    16.7468  16.9652

          k = 0.0000-0.5893 0.0000 (   761 PWs)   bands (ev):

    -2.9529  -0.4350   3.2956   3.2956   6.5972   7.2039  14.6931  14.6931
    17.0038  17.2951

          k = 0.0000-0.6128 0.0000 (   761 PWs)   bands (ev):

    -2.7285  -0.7102   3.2569   3.2569   6.6012   7.0839  14.9989  14.9989
    17.2710  17.6165

          k = 0.0000-0.6364 0.0000 (   761 PWs)   bands (ev):

    -2.4973  -0.9812   3.2267   3.2267   6.6172   6.9776  15.2976  15.2976
    17.5301  17.5302

          k = 0.0000-0.6600 0.0000 (   769 PWs)   bands (ev):

    -2.2594  -1.2476   3.2051   3.2051   6.6452   6.8848  15.5779  15.5779
    17.2434  17.2434

          k = 0.0000-0.6835 0.0000 (   765 PWs)   bands (ev):

    -2.0152  -1.5089   3.1921   3.1921   6.6858   6.8054  15.8088  15.8088
    17.0081  17.0081

          k = 0.0000-0.7071 0.0000 (   774 PWs)   bands (ev):

    -1.7649  -1.7649   3.1878   3.1878   6.7391   6.7391  15.9097  15.9097
    16.9053  16.9053

          k = 0.0177-0.7071 0.0177 (   762 PWs)   bands (ev):

    -1.7673  -1.7591   3.1517   3.1921   6.7441   6.7933  15.8526  15.8772
    16.8146  16.8383

          k = 0.0354-0.7071 0.0354 (   764 PWs)   bands (ev):

    -1.7746  -1.7415   3.0504   3.2050   6.7590   6.9488  15.6956  15.7839
    16.5841  16.6640

          k = 0.0530-0.7071 0.0530 (   768 PWs)   bands (ev):

    -1.7878  -1.7124   2.9009   3.2265   6.7836   7.1896  15.4691  15.6405
    16.2811  16.4283

          k = 0.0707-0.7071 0.0707 (   768 PWs)   bands (ev):

    -1.8078  -1.6715   2.7227   3.2565   6.8181   7.4971  15.2000  15.4595
    15.9464  16.1618

          k = 0.0884-0.7071 0.0884 (   768 PWs)   bands (ev):

    -1.8365  -1.6190   2.5328   3.2948   6.8623   7.8559  14.9071  15.2522
    15.5995  15.8812

          k = 0.1061-0.7071 0.1061 (   764 PWs)   bands (ev):

    -1.8759  -1.5549   2.3448   3.3415   6.9160   8.2542  14.6016  15.0273
    15.2501  15.5952

          k = 0.1237-0.7071 0.1237 (   764 PWs)   bands (ev):

    -1.9280  -1.4792   2.1690   3.3962   6.9790   8.6833  14.2908  14.7914
    14.9035  15.3091

          k = 0.1414-0.7071 0.1414 (   764 PWs)   bands (ev):

    -1.9950  -1.3918   2.0131   3.4588   7.0511   9.1371  13.9791  14.5493
    14.5626  15.0263

          k = 0.1591-0.7071 0.1591 (   756 PWs)   bands (ev):

    -2.0785  -1.2930   1.8828   3.5291   7.1321   9.6112  13.6695  14.2296
    14.3048  14.7491

          k = 0.1768-0.7071 0.1768 (   762 PWs)   bands (ev):

    -2.1796  -1.1826   1.7818   3.6067   7.2215  10.1012  13.3641  13.9060
    14.0605  14.4791

          k = 0.1709-0.6835 0.1709 (   754 PWs)   bands (ev):

    -2.1829  -1.1844   1.8254   3.5839   7.1965   9.9421  13.3934  13.7525
    14.4009  14.6490

          k = 0.1650-0.6600 0.1650 (   756 PWs)   bands (ev):

    -2.2659  -1.1097   1.8962   3.5700   7.1835   9.7962  13.3175  13.5331
    14.8057  14.9422

          k = 0.1591-0.6364 0.1591 (   760 PWs)   bands (ev):

    -2.4075  -0.9758   1.9903   3.5649   7.1825   9.6646  13.1931  13.3116
    15.2087  15.3009

          k = 0.1532-0.6128 0.1532 (   761 PWs)   bands (ev):

    -2.5829  -0.8043   2.1041   3.5689   7.1929   9.5481  13.0494  13.0909
    15.6030  15.6947

          k = 0.1473-0.5893 0.1473 (   761 PWs)   bands (ev):

    -2.7758  -0.6090   2.2346   3.5820   7.2142   9.4477  12.8716  12.8985
    15.9812  16.1094

          k = 0.1414-0.5657 0.1414 (   763 PWs)   bands (ev):

    -2.9767  -0.3971   2.3791   3.6043   7.2453   9.3648  12.6540  12.7455
    16.3326  16.5368

          k = 0.1355-0.5421 0.1355 (   766 PWs)   bands (ev):

    -3.1804  -0.1722   2.5355   3.6359   7.2852   9.3007  12.4383  12.5920
    16.6407  16.9665

          k = 0.1296-0.5185 0.1296 (   768 PWs)   bands (ev):

    -3.3833   0.0633   2.7017   3.6766   7.3322   9.2573  12.2247  12.4387
    16.8806  17.2324

          k = 0.1237-0.4950 0.1237 (   770 PWs)   bands (ev):

    -3.5832   0.3082   2.8761   3.7266   7.3846   9.2360  12.0136  12.2851
    16.8917  16.9981

          k = 0.1179-0.4714 0.1179 (   766 PWs)   bands (ev):

    -3.7783   0.5618   3.0570   3.7857   7.4404   9.2390  11.8050  12.1302
    16.5162  16.7666

          k = 0.1120-0.4478 0.1120 (   764 PWs)   bands (ev):

    -3.9675   0.8233   3.2429   3.8540   7.4977   9.2675  11.5997  11.9726
    16.1567  16.3436

          k = 0.1061-0.4243 0.1061 (   763 PWs)   bands (ev):

    -4.1498   1.0925   3.4325   3.9312   7.5548   9.3220  11.3983  11.8107
    15.8184  15.9029

          k = 0.1002-0.4007 0.1002 (   769 PWs)   bands (ev):

    -4.3246   1.3689   3.6244   4.0172   7.6107   9.4016  11.2020  11.6426
    15.4618  15.5040

          k = 0.0943-0.3771 0.0943 (   767 PWs)   bands (ev):

    -4.4913   1.6522   3.8174   4.1118   7.6653   9.5033  11.0135  11.4670
    15.0249  15.2157

          k = 0.0884-0.3536 0.0884 (   764 PWs)   bands (ev):

    -4.6494   1.9421   4.0103   4.2149   7.7189   9.6204  10.8371  11.2823
    14.5951  14.9552

          k = 0.0825-0.3300 0.0825 (   770 PWs)   bands (ev):

    -4.7985   2.2382   4.2021   4.3261   7.7725   9.7390  10.6831  11.0876
    14.1758  14.7234

          k = 0.0766-0.3064 0.0766 (   774 PWs)   bands (ev):

    -4.9383   2.5400   4.3915   4.4449   7.8272   9.8305  10.5744  10.8830
    13.7716  14.5207

          k = 0.0707-0.2828 0.0707 (   770 PWs)   bands (ev):

    -5.0686   2.8470   4.5710   4.5775   7.8842   9.8498  10.5476  10.6690
    13.3904  14.3466

          k = 0.0648-0.2593 0.0648 (   773 PWs)   bands (ev):

    -5.1891   3.1585   4.7036   4.7589   7.9440   9.7812  10.4471  10.6032
    13.0454  14.1999

          k = 0.0589-0.2357 0.0589 (   777 PWs)   bands (ev):

    -5.2997   3.4736   4.8419   4.9345   8.0072   9.6604  10.2193  10.6806
    12.7605  14.0785

          k = 0.0530-0.2121 0.0530 (   777 PWs)   bands (ev):

    -5.4001   3.7912   4.9849   5.1029   8.0738   9.5195   9.9888  10.7092
    12.5731  13.9801

          k = 0.0471-0.1886 0.0471 (   773 PWs)   bands (ev):

    -5.4903   4.1095   5.1312   5.2629   8.1430   9.3736   9.7586  10.6381
    12.5179  13.9022

          k = 0.0412-0.1650 0.0412 (   769 PWs)   bands (ev):

    -5.5701   4.4264   5.2789   5.4126   8.2137   9.2299   9.5325  10.4631
    12.5911  13.8417

          k = 0.0354-0.1414 0.0354 (   765 PWs)   bands (ev):

    -5.6395   4.7385   5.4251   5.5503   8.2840   9.0921   9.3149  10.2207
    12.7518  13.7960

          k = 0.0295-0.1179 0.0295 (   761 PWs)   bands (ev):

    -5.6983   5.0408   5.5665   5.6738   8.3515   8.9624   9.1107   9.9510
    12.9570  13.7625

          k = 0.0236-0.0943 0.0236 (   753 PWs)   bands (ev):

    -5.7465   5.3261   5.6983   5.7805   8.4132   8.8424   8.9260   9.6849
    13.1749  13.7387

          k = 0.0177-0.0707 0.0177 (   744 PWs)   bands (ev):

    -5.7840   5.5827   5.8141   5.8677   8.4659   8.7330   8.7681   9.4474
    13.3806  13.7227

          k = 0.0118-0.0471 0.0118 (   747 PWs)   bands (ev):

    -5.8109   5.7935   5.9059   5.9327   8.5062   8.6376   8.6456   9.2617
    13.5511  13.7126

          k = 0.0059-0.0236 0.0059 (   749 PWs)   bands (ev):

    -5.8270   5.9357   5.9656   5.9728   8.5316   8.5671   8.5672   9.1456
    13.6651  13.7071

          k = 0.0000 0.0000 0.0000 (   749 PWs)   bands (ev):

    -5.8324   5.9865   5.9865   5.9865   8.5402   8.5402   8.5402   9.1066
    13.7054  13.7054

     Writing output data file ./si.save/

     init_run     :      0.36s CPU      0.37s WALL (       1 calls)
     electrons    :     17.22s CPU     17.34s WALL (       1 calls)

     Called by init_run:
     wfcinit      :      0.00s CPU      0.00s WALL (       1 calls)
     wfcinit:atom :      0.01s CPU      0.01s WALL (      91 calls)
     wfcinit:wfcr :      0.43s CPU      0.44s WALL (      91 calls)
     potinit      :      0.04s CPU      0.04s WALL (       1 calls)
     hinit0       :      0.26s CPU      0.27s WALL (       1 calls)

     Called by electrons:
     c_bands      :     17.22s CPU     17.33s WALL (       1 calls)
     v_of_rho     :      0.03s CPU      0.03s WALL (       1 calls)
     v_h          :      0.00s CPU      0.00s WALL (       1 calls)
     v_xc         :      0.03s CPU      0.03s WALL (       1 calls)
     newd         :      0.04s CPU      0.05s WALL (       1 calls)

     Called by c_bands:
     init_us_2    :      0.02s CPU      0.02s WALL (      91 calls)
     cegterg      :     16.68s CPU     16.76s WALL (     254 calls)

     Called by sum_band:

     Called by *egterg:
     cdiaghg      :      0.52s CPU      0.52s WALL (    4470 calls)
     cegterg:over :      1.17s CPU      1.17s WALL (    4379 calls)
     cegterg:upda :      0.75s CPU      0.75s WALL (    4379 calls)
     cegterg:last :      2.05s CPU      2.06s WALL (    2695 calls)
     h_psi        :     10.92s CPU     10.98s WALL (    4724 calls)
     s_psi        :      1.41s CPU      1.42s WALL (    4724 calls)
     g_psi        :      0.07s CPU      0.07s WALL (    4379 calls)

     Called by h_psi:
     h_psi:calbec :      1.28s CPU      1.29s WALL (    4724 calls)
     vloc_psi     :      8.18s CPU      8.23s WALL (    4724 calls)
     add_vuspsi   :      1.42s CPU      1.43s WALL (    4724 calls)

     General routines
     calbec       :      1.28s CPU      1.29s WALL (    4724 calls)
     fft          :      0.02s CPU      0.02s WALL (      13 calls)
     ffts         :      0.00s CPU      0.00s WALL (       1 calls)
     fftw         :      6.89s CPU      6.93s WALL (   56130 calls)
     interpolate  :      0.00s CPU      0.00s WALL (       1 calls)
     davcio       :      0.01s CPU      0.01s WALL (     182 calls)

     Parallel routines

     PWSCF        :     17.78s CPU     17.93s WALL


   This run was terminated on:  15: 8:29  13May2023            

=------------------------------------------------------------------------------=
   JOB DONE.
=------------------------------------------------------------------------------=
