
     Program PWSCF v.6.8 starts on 12May2023 at 18:16:15 

     This program is part of the open-source Quantum ESPRESSO suite
     for quantum simulation of materials; please cite
         "P. Giannozzi et al., J. Phys.:Condens. Matter 21 395502 (2009);
         "P. Giannozzi et al., J. Phys.:Condens. Matter 29 465901 (2017);
         "P. Giannozzi et al., J. Chem. Phys. 152 154105 (2020);
          URL http://www.quantum-espresso.org", 
     in publications or presentations arising from this work. More details at
     http://www.quantum-espresso.org/quote

     Parallel version (MPI), running on     1 processors

     MPI processes distributed on     1 nodes
     1889 MiB available memory on the printing compute node when the environment starts

     Waiting for input...
     Reading input from standard input

     Current dimensions of program PWSCF are:
     Max number of different atomic species (ntypx) = 10
     Max number of k-points (npk) =  40000
     Max angular momentum in pseudopotentials (lmaxx) =  4
     Message from routine volume:
     axis vectors are left-handed
     file Al.pbe-n-kjpaw_psl.1.0.0.UPF: wavefunction(s)  3S 3P renormalized
     Message from routine setup:
     using ibrav=0 with symmetry is DISCOURAGED, use correct ibrav instead

     Subspace diagonalization in iterative solution of the eigenvalue problem:
     a serial algorithm will be used


     G-vector sticks info
     --------------------
     sticks:   dense  smooth     PW     G-vecs:    dense   smooth      PW
     Sum         475     241     85                 6879     2445     531

     Using Slab Decomposition



     bravais-lattice index     =            0
     lattice parameter (alat)  =       5.3984  a.u.
     unit-cell volume          =     111.2451 (a.u.)^3
     number of atoms/cell      =            1
     number of atomic types    =            1
     number of electrons       =         3.00
     number of Kohn-Sham states=            6
     kinetic-energy cutoff     =      30.0000  Ry
     charge density cutoff     =     240.0000  Ry
     scf convergence threshold =      2.0E-10
     mixing beta               =       0.4000
     number of iterations used =            8  plain     mixing
     energy convergence thresh.=      1.0E-05
     force convergence thresh. =      1.0E-04
     press convergence thresh. =      5.0E-01
     Exchange-correlation= SLA  PW   PBX  PBC
                           (   1   4   3   4   0   0   0)
     nstep                     =           50


     celldm(1)=   5.398402  celldm(2)=   0.000000  celldm(3)=   0.000000
     celldm(4)=   0.000000  celldm(5)=   0.000000  celldm(6)=   0.000000

     crystal axes: (cart. coord. in units of alat)
               a(1) = (   0.707107   0.707107   0.000000 )  
               a(2) = (   0.707107   0.000000   0.707107 )  
               a(3) = (   0.000000   0.707107   0.707107 )  

     reciprocal axes: (cart. coord. in units 2 pi/alat)
               b(1) = (  0.707107  0.707107 -0.707107 )  
               b(2) = (  0.707107 -0.707107  0.707107 )  
               b(3) = ( -0.707107  0.707107  0.707107 )  


     PseudoPot. # 1 for Al read from file:
     ./pseudo/Al.pbe-n-kjpaw_psl.1.0.0.UPF
     MD5 check sum: cfc449ca30b5f3223ec38ddd88ac046d
     Pseudo is Projector augmented-wave + core cor, Zval =  3.0
     Generated using "atomic" code by A. Dal Corso  v.5.1
     Shape of augmentation charge: PSQ
     Using radial grid of 1135 points,  6 beta functions with: 
                l(1) =   0
                l(2) =   0
                l(3) =   1
                l(4) =   1
                l(5) =   2
                l(6) =   2
     Q(r) pseudized with 0 coefficients 


     atomic species   valence    mass     pseudopotential
        Al             3.00    26.98154     Al( 1.00)

     48 Sym. Ops., with inversion, found


                                    s                        frac. trans.

      isym =  1     identity                                     

 cryst.   s( 1) = (     1          0          0      )
                  (     0          1          0      )
                  (     0          0          1      )

 cart.    s( 1) = (  1.0000000  0.0000000  0.0000000 )
                  (  0.0000000  1.0000000  0.0000000 )
                  (  0.0000000  0.0000000  1.0000000 )


      isym =  2     180 deg rotation - cart. axis [0,0,1]        

 cryst.   s( 2) = (    -1          0          0      )
                  (    -1          0          1      )
                  (    -1          1          0      )

 cart.    s( 2) = ( -1.0000000  0.0000000  0.0000000 )
                  (  0.0000000 -1.0000000  0.0000000 )
                  (  0.0000000  0.0000000  1.0000000 )


      isym =  3     180 deg rotation - cart. axis [0,1,0]        

 cryst.   s( 3) = (     0         -1          1      )
                  (     0         -1          0      )
                  (     1         -1          0      )

 cart.    s( 3) = ( -1.0000000  0.0000000  0.0000000 )
                  (  0.0000000  1.0000000  0.0000000 )
                  (  0.0000000  0.0000000 -1.0000000 )


      isym =  4     180 deg rotation - cart. axis [1,0,0]        

 cryst.   s( 4) = (     0          1         -1      )
                  (     1          0         -1      )
                  (     0          0         -1      )

 cart.    s( 4) = (  1.0000000  0.0000000  0.0000000 )
                  (  0.0000000 -1.0000000  0.0000000 )
                  (  0.0000000  0.0000000 -1.0000000 )


      isym =  5     180 deg rotation - cart. axis [1,1,0]        

 cryst.   s( 5) = (     1          0          0      )
                  (     1         -1          0      )
                  (     1          0         -1      )

 cart.    s( 5) = (  0.0000000  1.0000000  0.0000000 )
                  (  1.0000000  0.0000000  0.0000000 )
                  (  0.0000000  0.0000000 -1.0000000 )


      isym =  6     180 deg rotation - cart. axis [1,-1,0]       

 cryst.   s( 6) = (    -1          0          0      )
                  (     0          0         -1      )
                  (     0         -1          0      )

 cart.    s( 6) = (  0.0000000 -1.0000000  0.0000000 )
                  ( -1.0000000  0.0000000  0.0000000 )
                  (  0.0000000  0.0000000 -1.0000000 )


      isym =  7      90 deg rotation - cart. axis [0,0,-1]       

 cryst.   s( 7) = (     0          1         -1      )
                  (    -1          1          0      )
                  (     0          1          0      )

 cart.    s( 7) = (  0.0000000  1.0000000  0.0000000 )
                  ( -1.0000000  0.0000000  0.0000000 )
                  (  0.0000000  0.0000000  1.0000000 )


      isym =  8      90 deg rotation - cart. axis [0,0,1]        

 cryst.   s( 8) = (     0         -1          1      )
                  (     0          0          1      )
                  (    -1          0          1      )

 cart.    s( 8) = (  0.0000000 -1.0000000  0.0000000 )
                  (  1.0000000  0.0000000  0.0000000 )
                  (  0.0000000  0.0000000  1.0000000 )


      isym =  9     180 deg rotation - cart. axis [1,0,1]        

 cryst.   s( 9) = (    -1          1          0      )
                  (     0          1          0      )
                  (     0          1         -1      )

 cart.    s( 9) = (  0.0000000  0.0000000  1.0000000 )
                  (  0.0000000 -1.0000000  0.0000000 )
                  (  1.0000000  0.0000000  0.0000000 )


      isym = 10     180 deg rotation - cart. axis [-1,0,1]       

 cryst.   s(10) = (     0          0         -1      )
                  (     0         -1          0      )
                  (    -1          0          0      )

 cart.    s(10) = (  0.0000000  0.0000000 -1.0000000 )
                  (  0.0000000 -1.0000000  0.0000000 )
                  ( -1.0000000  0.0000000  0.0000000 )


      isym = 11      90 deg rotation - cart. axis [0,1,0]        

 cryst.   s(11) = (     1         -1          0      )
                  (     1          0         -1      )
                  (     1          0          0      )

 cart.    s(11) = (  0.0000000  0.0000000  1.0000000 )
                  (  0.0000000  1.0000000  0.0000000 )
                  ( -1.0000000  0.0000000  0.0000000 )


      isym = 12      90 deg rotation - cart. axis [0,-1,0]       

 cryst.   s(12) = (     0          0          1      )
                  (    -1          0          1      )
                  (     0         -1          1      )

 cart.    s(12) = (  0.0000000  0.0000000 -1.0000000 )
                  (  0.0000000  1.0000000  0.0000000 )
                  (  1.0000000  0.0000000  0.0000000 )


      isym = 13     180 deg rotation - cart. axis [0,1,1]        

 cryst.   s(13) = (    -1          0          1      )
                  (     0         -1          1      )
                  (     0          0          1      )

 cart.    s(13) = ( -1.0000000  0.0000000  0.0000000 )
                  (  0.0000000  0.0000000  1.0000000 )
                  (  0.0000000  1.0000000  0.0000000 )


      isym = 14     180 deg rotation - cart. axis [0,1,-1]       

 cryst.   s(14) = (     0         -1          0      )
                  (    -1          0          0      )
                  (     0          0         -1      )

 cart.    s(14) = ( -1.0000000  0.0000000  0.0000000 )
                  (  0.0000000  0.0000000 -1.0000000 )
                  (  0.0000000 -1.0000000  0.0000000 )


      isym = 15      90 deg rotation - cart. axis [-1,0,0]       

 cryst.   s(15) = (     1          0         -1      )
                  (     1          0          0      )
                  (     1         -1          0      )

 cart.    s(15) = (  1.0000000  0.0000000  0.0000000 )
                  (  0.0000000  0.0000000  1.0000000 )
                  (  0.0000000 -1.0000000  0.0000000 )


      isym = 16      90 deg rotation - cart. axis [1,0,0]        

 cryst.   s(16) = (     0          1          0      )
                  (     0          1         -1      )
                  (    -1          1          0      )

 cart.    s(16) = (  1.0000000  0.0000000  0.0000000 )
                  (  0.0000000  0.0000000 -1.0000000 )
                  (  0.0000000  1.0000000  0.0000000 )


      isym = 17     120 deg rotation - cart. axis [-1,-1,-1]     

 cryst.   s(17) = (     0          1          0      )
                  (     0          0          1      )
                  (     1          0          0      )

 cart.    s(17) = (  0.0000000  1.0000000  0.0000000 )
                  (  0.0000000  0.0000000  1.0000000 )
                  (  1.0000000  0.0000000  0.0000000 )


      isym = 18     120 deg rotation - cart. axis [-1,1,1]       

 cryst.   s(18) = (     0         -1          0      )
                  (     1         -1          0      )
                  (     0         -1          1      )

 cart.    s(18) = (  0.0000000 -1.0000000  0.0000000 )
                  (  0.0000000  0.0000000  1.0000000 )
                  ( -1.0000000  0.0000000  0.0000000 )


      isym = 19     120 deg rotation - cart. axis [1,1,-1]       

 cryst.   s(19) = (     1          0         -1      )
                  (     0          0         -1      )
                  (     0          1         -1      )

 cart.    s(19) = (  0.0000000  1.0000000  0.0000000 )
                  (  0.0000000  0.0000000 -1.0000000 )
                  ( -1.0000000  0.0000000  0.0000000 )


      isym = 20     120 deg rotation - cart. axis [1,-1,1]       

 cryst.   s(20) = (    -1          0          1      )
                  (    -1          1          0      )
                  (    -1          0          0      )

 cart.    s(20) = (  0.0000000 -1.0000000  0.0000000 )
                  (  0.0000000  0.0000000 -1.0000000 )
                  (  1.0000000  0.0000000  0.0000000 )


      isym = 21     120 deg rotation - cart. axis [1,1,1]        

 cryst.   s(21) = (     0          0          1      )
                  (     1          0          0      )
                  (     0          1          0      )

 cart.    s(21) = (  0.0000000  0.0000000  1.0000000 )
                  (  1.0000000  0.0000000  0.0000000 )
                  (  0.0000000  1.0000000  0.0000000 )


      isym = 22     120 deg rotation - cart. axis [-1,1,-1]      

 cryst.   s(22) = (     0          0         -1      )
                  (     0          1         -1      )
                  (     1          0         -1      )

 cart.    s(22) = (  0.0000000  0.0000000  1.0000000 )
                  ( -1.0000000  0.0000000  0.0000000 )
                  (  0.0000000 -1.0000000  0.0000000 )


      isym = 23     120 deg rotation - cart. axis [1,-1,-1]      

 cryst.   s(23) = (    -1          1          0      )
                  (    -1          0          0      )
                  (    -1          0          1      )

 cart.    s(23) = (  0.0000000  0.0000000 -1.0000000 )
                  ( -1.0000000  0.0000000  0.0000000 )
                  (  0.0000000  1.0000000  0.0000000 )


      isym = 24     120 deg rotation - cart. axis [-1,-1,1]      

 cryst.   s(24) = (     1         -1          0      )
                  (     0         -1          1      )
                  (     0         -1          0      )

 cart.    s(24) = (  0.0000000  0.0000000 -1.0000000 )
                  (  1.0000000  0.0000000  0.0000000 )
                  (  0.0000000 -1.0000000  0.0000000 )


      isym = 25     inversion                                    

 cryst.   s(25) = (    -1          0          0      )
                  (     0         -1          0      )
                  (     0          0         -1      )

 cart.    s(25) = ( -1.0000000  0.0000000  0.0000000 )
                  (  0.0000000 -1.0000000  0.0000000 )
                  (  0.0000000  0.0000000 -1.0000000 )


      isym = 26     inv. 180 deg rotation - cart. axis [0,0,1]   

 cryst.   s(26) = (     1          0          0      )
                  (     1          0         -1      )
                  (     1         -1          0      )

 cart.    s(26) = (  1.0000000  0.0000000  0.0000000 )
                  (  0.0000000  1.0000000  0.0000000 )
                  (  0.0000000  0.0000000 -1.0000000 )


      isym = 27     inv. 180 deg rotation - cart. axis [0,1,0]   

 cryst.   s(27) = (     0          1         -1      )
                  (     0          1          0      )
                  (    -1          1          0      )

 cart.    s(27) = (  1.0000000  0.0000000  0.0000000 )
                  (  0.0000000 -1.0000000  0.0000000 )
                  (  0.0000000  0.0000000  1.0000000 )


      isym = 28     inv. 180 deg rotation - cart. axis [1,0,0]   

 cryst.   s(28) = (     0         -1          1      )
                  (    -1          0          1      )
                  (     0          0          1      )

 cart.    s(28) = ( -1.0000000  0.0000000  0.0000000 )
                  (  0.0000000  1.0000000  0.0000000 )
                  (  0.0000000  0.0000000  1.0000000 )


      isym = 29     inv. 180 deg rotation - cart. axis [1,1,0]   

 cryst.   s(29) = (    -1          0          0      )
                  (    -1          1          0      )
                  (    -1          0          1      )

 cart.    s(29) = (  0.0000000 -1.0000000  0.0000000 )
                  ( -1.0000000  0.0000000  0.0000000 )
                  (  0.0000000  0.0000000  1.0000000 )


      isym = 30     inv. 180 deg rotation - cart. axis [1,-1,0]  

 cryst.   s(30) = (     1          0          0      )
                  (     0          0          1      )
                  (     0          1          0      )

 cart.    s(30) = (  0.0000000  1.0000000  0.0000000 )
                  (  1.0000000  0.0000000  0.0000000 )
                  (  0.0000000  0.0000000  1.0000000 )


      isym = 31     inv.  90 deg rotation - cart. axis [0,0,-1]  

 cryst.   s(31) = (     0         -1          1      )
                  (     1         -1          0      )
                  (     0         -1          0      )

 cart.    s(31) = (  0.0000000 -1.0000000  0.0000000 )
                  (  1.0000000  0.0000000  0.0000000 )
                  (  0.0000000  0.0000000 -1.0000000 )


      isym = 32     inv.  90 deg rotation - cart. axis [0,0,1]   

 cryst.   s(32) = (     0          1         -1      )
                  (     0          0         -1      )
                  (     1          0         -1      )

 cart.    s(32) = (  0.0000000  1.0000000  0.0000000 )
                  ( -1.0000000  0.0000000  0.0000000 )
                  (  0.0000000  0.0000000 -1.0000000 )


      isym = 33     inv. 180 deg rotation - cart. axis [1,0,1]   

 cryst.   s(33) = (     1         -1          0      )
                  (     0         -1          0      )
                  (     0         -1          1      )

 cart.    s(33) = (  0.0000000  0.0000000 -1.0000000 )
                  (  0.0000000  1.0000000  0.0000000 )
                  ( -1.0000000  0.0000000  0.0000000 )


      isym = 34     inv. 180 deg rotation - cart. axis [-1,0,1]  

 cryst.   s(34) = (     0          0          1      )
                  (     0          1          0      )
                  (     1          0          0      )

 cart.    s(34) = (  0.0000000  0.0000000  1.0000000 )
                  (  0.0000000  1.0000000  0.0000000 )
                  (  1.0000000  0.0000000  0.0000000 )


      isym = 35     inv.  90 deg rotation - cart. axis [0,1,0]   

 cryst.   s(35) = (    -1          1          0      )
                  (    -1          0          1      )
                  (    -1          0          0      )

 cart.    s(35) = (  0.0000000  0.0000000 -1.0000000 )
                  (  0.0000000 -1.0000000  0.0000000 )
                  (  1.0000000  0.0000000  0.0000000 )


      isym = 36     inv.  90 deg rotation - cart. axis [0,-1,0]  

 cryst.   s(36) = (     0          0         -1      )
                  (     1          0         -1      )
                  (     0          1         -1      )

 cart.    s(36) = (  0.0000000  0.0000000  1.0000000 )
                  (  0.0000000 -1.0000000  0.0000000 )
                  ( -1.0000000  0.0000000  0.0000000 )


      isym = 37     inv. 180 deg rotation - cart. axis [0,1,1]   

 cryst.   s(37) = (     1          0         -1      )
                  (     0          1         -1      )
                  (     0          0         -1      )

 cart.    s(37) = (  1.0000000  0.0000000  0.0000000 )
                  (  0.0000000  0.0000000 -1.0000000 )
                  (  0.0000000 -1.0000000  0.0000000 )


      isym = 38     inv. 180 deg rotation - cart. axis [0,1,-1]  

 cryst.   s(38) = (     0          1          0      )
                  (     1          0          0      )
                  (     0          0          1      )

 cart.    s(38) = (  1.0000000  0.0000000  0.0000000 )
                  (  0.0000000  0.0000000  1.0000000 )
                  (  0.0000000  1.0000000  0.0000000 )


      isym = 39     inv.  90 deg rotation - cart. axis [-1,0,0]  

 cryst.   s(39) = (    -1          0          1      )
                  (    -1          0          0      )
                  (    -1          1          0      )

 cart.    s(39) = ( -1.0000000  0.0000000  0.0000000 )
                  (  0.0000000  0.0000000 -1.0000000 )
                  (  0.0000000  1.0000000  0.0000000 )


      isym = 40     inv.  90 deg rotation - cart. axis [1,0,0]   

 cryst.   s(40) = (     0         -1          0      )
                  (     0         -1          1      )
                  (     1         -1          0      )

 cart.    s(40) = ( -1.0000000  0.0000000  0.0000000 )
                  (  0.0000000  0.0000000  1.0000000 )
                  (  0.0000000 -1.0000000  0.0000000 )


      isym = 41     inv. 120 deg rotation - cart. axis [-1,-1,-1]

 cryst.   s(41) = (     0         -1          0      )
                  (     0          0         -1      )
                  (    -1          0          0      )

 cart.    s(41) = (  0.0000000 -1.0000000  0.0000000 )
                  (  0.0000000  0.0000000 -1.0000000 )
                  ( -1.0000000  0.0000000  0.0000000 )


      isym = 42     inv. 120 deg rotation - cart. axis [-1,1,1]  

 cryst.   s(42) = (     0          1          0      )
                  (    -1          1          0      )
                  (     0          1         -1      )

 cart.    s(42) = (  0.0000000  1.0000000  0.0000000 )
                  (  0.0000000  0.0000000 -1.0000000 )
                  (  1.0000000  0.0000000  0.0000000 )


      isym = 43     inv. 120 deg rotation - cart. axis [1,1,-1]  

 cryst.   s(43) = (    -1          0          1      )
                  (     0          0          1      )
                  (     0         -1          1      )

 cart.    s(43) = (  0.0000000 -1.0000000  0.0000000 )
                  (  0.0000000  0.0000000  1.0000000 )
                  (  1.0000000  0.0000000  0.0000000 )


      isym = 44     inv. 120 deg rotation - cart. axis [1,-1,1]  

 cryst.   s(44) = (     1          0         -1      )
                  (     1         -1          0      )
                  (     1          0          0      )

 cart.    s(44) = (  0.0000000  1.0000000  0.0000000 )
                  (  0.0000000  0.0000000  1.0000000 )
                  ( -1.0000000  0.0000000  0.0000000 )


      isym = 45     inv. 120 deg rotation - cart. axis [1,1,1]   

 cryst.   s(45) = (     0          0         -1      )
                  (    -1          0          0      )
                  (     0         -1          0      )

 cart.    s(45) = (  0.0000000  0.0000000 -1.0000000 )
                  ( -1.0000000  0.0000000  0.0000000 )
                  (  0.0000000 -1.0000000  0.0000000 )


      isym = 46     inv. 120 deg rotation - cart. axis [-1,1,-1] 

 cryst.   s(46) = (     0          0          1      )
                  (     0         -1          1      )
                  (    -1          0          1      )

 cart.    s(46) = (  0.0000000  0.0000000 -1.0000000 )
                  (  1.0000000  0.0000000  0.0000000 )
                  (  0.0000000  1.0000000  0.0000000 )


      isym = 47     inv. 120 deg rotation - cart. axis [1,-1,-1] 

 cryst.   s(47) = (     1         -1          0      )
                  (     1          0          0      )
                  (     1          0         -1      )

 cart.    s(47) = (  0.0000000  0.0000000  1.0000000 )
                  (  1.0000000  0.0000000  0.0000000 )
                  (  0.0000000 -1.0000000  0.0000000 )


      isym = 48     inv. 120 deg rotation - cart. axis [-1,-1,1] 

 cryst.   s(48) = (    -1          1          0      )
                  (     0          1         -1      )
                  (     0          1          0      )

 cart.    s(48) = (  0.0000000  0.0000000  1.0000000 )
                  ( -1.0000000  0.0000000  0.0000000 )
                  (  0.0000000  1.0000000  0.0000000 )


   Cartesian axes

     site n.     atom                  positions (alat units)
         1           Al  tau(   1) = (   0.0000000   0.0000000   0.0000000  )

   Crystallographic axes

     site n.     atom                  positions (cryst. coord.)
         1           Al  tau(   1) = (  0.0000000  0.0000000  0.0000000  )

     number of k points=   104  Marzari-Vanderbilt smearing, width (Ry)=  0.0200
                       cart. coord. in units 2pi/alat
        k(    1) = (   0.0000000   0.0000000   0.0000000), wk =   0.0007289
        k(    2) = (  -0.0505076   0.0505076   0.0505076), wk =   0.0058309
        k(    3) = (  -0.1010153   0.1010153   0.1010153), wk =   0.0058309
        k(    4) = (  -0.1515229   0.1515229   0.1515229), wk =   0.0058309
        k(    5) = (  -0.2020305   0.2020305   0.2020305), wk =   0.0058309
        k(    6) = (  -0.2525381   0.2525381   0.2525381), wk =   0.0058309
        k(    7) = (  -0.3030458   0.3030458   0.3030458), wk =   0.0058309
        k(    8) = (   0.3535534  -0.3535534  -0.3535534), wk =   0.0029155
        k(    9) = (   0.0000000   0.0000000   0.1010153), wk =   0.0043732
        k(   10) = (  -0.0505076   0.0505076   0.1515229), wk =   0.0174927
        k(   11) = (  -0.1010153   0.1010153   0.2020305), wk =   0.0174927
        k(   12) = (  -0.1515229   0.1515229   0.2525381), wk =   0.0174927
        k(   13) = (  -0.2020305   0.2020305   0.3030458), wk =   0.0174927
        k(   14) = (  -0.2525381   0.2525381   0.3535534), wk =   0.0174927
        k(   15) = (   0.4040610  -0.4040610  -0.3030458), wk =   0.0174927
        k(   16) = (   0.3535534  -0.3535534  -0.2525381), wk =   0.0174927
        k(   17) = (   0.3030458  -0.3030458  -0.2020305), wk =   0.0174927
        k(   18) = (   0.2525381  -0.2525381  -0.1515229), wk =   0.0174927
        k(   19) = (   0.2020305  -0.2020305  -0.1010153), wk =   0.0174927
        k(   20) = (   0.1515229  -0.1515229  -0.0505076), wk =   0.0174927
        k(   21) = (   0.1010153  -0.1010153   0.0000000), wk =   0.0087464
        k(   22) = (   0.0000000   0.0000000   0.2020305), wk =   0.0043732
        k(   23) = (  -0.0505076   0.0505076   0.2525381), wk =   0.0174927
        k(   24) = (  -0.1010153   0.1010153   0.3030458), wk =   0.0174927
        k(   25) = (  -0.1515229   0.1515229   0.3535534), wk =   0.0174927
        k(   26) = (  -0.2020305   0.2020305   0.4040610), wk =   0.0174927
        k(   27) = (   0.4545686  -0.4545686  -0.2525381), wk =   0.0174927
        k(   28) = (   0.4040610  -0.4040610  -0.2020305), wk =   0.0174927
        k(   29) = (   0.3535534  -0.3535534  -0.1515229), wk =   0.0174927
        k(   30) = (   0.3030458  -0.3030458  -0.1010153), wk =   0.0174927
        k(   31) = (   0.2525381  -0.2525381  -0.0505076), wk =   0.0174927
        k(   32) = (   0.2020305  -0.2020305  -0.0000000), wk =   0.0087464
        k(   33) = (   0.0000000   0.0000000   0.3030458), wk =   0.0043732
        k(   34) = (  -0.0505076   0.0505076   0.3535534), wk =   0.0174927
        k(   35) = (  -0.1010153   0.1010153   0.4040610), wk =   0.0174927
        k(   36) = (  -0.1515229   0.1515229   0.4545686), wk =   0.0174927
        k(   37) = (   0.5050763  -0.5050763  -0.2020305), wk =   0.0174927
        k(   38) = (   0.4545686  -0.4545686  -0.1515229), wk =   0.0174927
        k(   39) = (   0.4040610  -0.4040610  -0.1010153), wk =   0.0174927
        k(   40) = (   0.3535534  -0.3535534  -0.0505076), wk =   0.0174927
        k(   41) = (   0.3030458  -0.3030458   0.0000000), wk =   0.0087464
        k(   42) = (   0.0000000   0.0000000   0.4040610), wk =   0.0043732
        k(   43) = (  -0.0505076   0.0505076   0.4545686), wk =   0.0174927
        k(   44) = (  -0.1010153   0.1010153   0.5050763), wk =   0.0174927
        k(   45) = (   0.5555839  -0.5555839  -0.1515229), wk =   0.0174927
        k(   46) = (   0.5050763  -0.5050763  -0.1010153), wk =   0.0174927
        k(   47) = (   0.4545686  -0.4545686  -0.0505076), wk =   0.0174927
        k(   48) = (   0.4040610  -0.4040610   0.0000000), wk =   0.0087464
        k(   49) = (   0.0000000   0.0000000   0.5050763), wk =   0.0043732
        k(   50) = (  -0.0505076   0.0505076   0.5555839), wk =   0.0174927
        k(   51) = (   0.6060915  -0.6060915  -0.1010153), wk =   0.0174927
        k(   52) = (   0.5555839  -0.5555839  -0.0505076), wk =   0.0174927
        k(   53) = (   0.5050763  -0.5050763   0.0000000), wk =   0.0087464
        k(   54) = (   0.0000000   0.0000000   0.6060915), wk =   0.0043732
        k(   55) = (   0.6565992  -0.6565992  -0.0505076), wk =   0.0174927
        k(   56) = (   0.6060915  -0.6060915   0.0000000), wk =   0.0087464
        k(   57) = (   0.0000000   0.0000000  -0.7071068), wk =   0.0021866
        k(   58) = (   0.0000000   0.1010153   0.2020305), wk =   0.0174927
        k(   59) = (  -0.0505076   0.1515229   0.2525381), wk =   0.0349854
        k(   60) = (  -0.1010153   0.2020305   0.3030458), wk =   0.0349854
        k(   61) = (  -0.1515229   0.2525381   0.3535534), wk =   0.0349854
        k(   62) = (   0.5050763  -0.4040610  -0.3030458), wk =   0.0349854
        k(   63) = (   0.4545686  -0.3535534  -0.2525381), wk =   0.0174927
        k(   64) = (   0.0000000   0.1010153   0.3030458), wk =   0.0174927
        k(   65) = (  -0.0505076   0.1515229   0.3535534), wk =   0.0349854
        k(   66) = (  -0.1010153   0.2020305   0.4040610), wk =   0.0349854
        k(   67) = (   0.5555839  -0.4545686  -0.2525381), wk =   0.0349854
        k(   68) = (   0.5050763  -0.4040610  -0.2020305), wk =   0.0349854
        k(   69) = (   0.4545686  -0.3535534  -0.1515229), wk =   0.0349854
        k(   70) = (   0.4040610  -0.3030458  -0.1010153), wk =   0.0349854
        k(   71) = (   0.3535534  -0.2525381  -0.0505076), wk =   0.0349854
        k(   72) = (   0.3030458  -0.2020305  -0.0000000), wk =   0.0174927
        k(   73) = (   0.0000000   0.1010153   0.4040610), wk =   0.0174927
        k(   74) = (  -0.0505076   0.1515229   0.4545686), wk =   0.0349854
        k(   75) = (   0.6060915  -0.5050763  -0.2020305), wk =   0.0349854
        k(   76) = (   0.5555839  -0.4545686  -0.1515229), wk =   0.0349854
        k(   77) = (   0.5050763  -0.4040610  -0.1010153), wk =   0.0349854
        k(   78) = (   0.4545686  -0.3535534  -0.0505076), wk =   0.0349854
        k(   79) = (   0.4040610  -0.3030458   0.0000000), wk =   0.0174927
        k(   80) = (   0.0000000   0.1010153   0.5050763), wk =   0.0174927
        k(   81) = (   0.6565992  -0.5555839  -0.1515229), wk =   0.0349854
        k(   82) = (   0.6060915  -0.5050763  -0.1010153), wk =   0.0349854
        k(   83) = (   0.5555839  -0.4545686  -0.0505076), wk =   0.0349854
        k(   84) = (   0.5050763  -0.4040610   0.0000000), wk =   0.0174927
        k(   85) = (   0.7071068  -0.6060915  -0.1010153), wk =   0.0174927
        k(   86) = (   0.6565992  -0.5555839  -0.0505076), wk =   0.0349854
        k(   87) = (   0.6060915  -0.5050763   0.0000000), wk =   0.0174927
        k(   88) = (   0.0000000   0.1010153  -0.7071068), wk =   0.0087464
        k(   89) = (   0.0000000   0.2020305   0.4040610), wk =   0.0174927
        k(   90) = (   0.6565992  -0.4545686  -0.2525381), wk =   0.0349854
        k(   91) = (   0.6060915  -0.4040610  -0.2020305), wk =   0.0349854
        k(   92) = (   0.5555839  -0.3535534  -0.1515229), wk =   0.0174927
        k(   93) = (   0.7071068  -0.5050763  -0.2020305), wk =   0.0174927
        k(   94) = (   0.6565992  -0.4545686  -0.1515229), wk =   0.0349854
        k(   95) = (   0.6060915  -0.4040610  -0.1010153), wk =   0.0349854
        k(   96) = (   0.5555839  -0.3535534  -0.0505076), wk =   0.0349854
        k(   97) = (   0.5050763  -0.3030458   0.0000000), wk =   0.0174927
        k(   98) = (   0.7071068  -0.5050763  -0.1010153), wk =   0.0174927
        k(   99) = (   0.6565992  -0.4545686  -0.0505076), wk =   0.0349854
        k(  100) = (   0.6060915  -0.4040610   0.0000000), wk =   0.0174927
        k(  101) = (  -0.0000000   0.2020305  -0.7071068), wk =   0.0087464
        k(  102) = (   0.7071068  -0.4040610  -0.1010153), wk =   0.0174927
        k(  103) = (   0.6565992  -0.3535534  -0.0505076), wk =   0.0174927
        k(  104) = (   0.0000000   0.3030458  -0.7071068), wk =   0.0087464

                       cryst. coord.
        k(    1) = (   0.0000000   0.0000000   0.0000000), wk =   0.0007289
        k(    2) = (   0.0000000   0.0000000   0.0714286), wk =   0.0058309
        k(    3) = (   0.0000000   0.0000000   0.1428571), wk =   0.0058309
        k(    4) = (   0.0000000   0.0000000   0.2142857), wk =   0.0058309
        k(    5) = (   0.0000000   0.0000000   0.2857143), wk =   0.0058309
        k(    6) = (   0.0000000   0.0000000   0.3571429), wk =   0.0058309
        k(    7) = (   0.0000000   0.0000000   0.4285714), wk =   0.0058309
        k(    8) = (   0.0000000   0.0000000  -0.5000000), wk =   0.0029155
        k(    9) = (   0.0000000   0.0714286   0.0714286), wk =   0.0043732
        k(   10) = (   0.0000000   0.0714286   0.1428571), wk =   0.0174927
        k(   11) = (   0.0000000   0.0714286   0.2142857), wk =   0.0174927
        k(   12) = (   0.0000000   0.0714286   0.2857143), wk =   0.0174927
        k(   13) = (   0.0000000   0.0714286   0.3571429), wk =   0.0174927
        k(   14) = (   0.0000000   0.0714286   0.4285714), wk =   0.0174927
        k(   15) = (   0.0000000   0.0714286  -0.5000000), wk =   0.0174927
        k(   16) = (   0.0000000   0.0714286  -0.4285714), wk =   0.0174927
        k(   17) = (   0.0000000   0.0714286  -0.3571429), wk =   0.0174927
        k(   18) = (   0.0000000   0.0714286  -0.2857143), wk =   0.0174927
        k(   19) = (   0.0000000   0.0714286  -0.2142857), wk =   0.0174927
        k(   20) = (   0.0000000   0.0714286  -0.1428571), wk =   0.0174927
        k(   21) = (   0.0000000   0.0714286  -0.0714286), wk =   0.0087464
        k(   22) = (   0.0000000   0.1428571   0.1428571), wk =   0.0043732
        k(   23) = (   0.0000000   0.1428571   0.2142857), wk =   0.0174927
        k(   24) = (   0.0000000   0.1428571   0.2857143), wk =   0.0174927
        k(   25) = (   0.0000000   0.1428571   0.3571429), wk =   0.0174927
        k(   26) = (   0.0000000   0.1428571   0.4285714), wk =   0.0174927
        k(   27) = (   0.0000000   0.1428571  -0.5000000), wk =   0.0174927
        k(   28) = (   0.0000000   0.1428571  -0.4285714), wk =   0.0174927
        k(   29) = (   0.0000000   0.1428571  -0.3571429), wk =   0.0174927
        k(   30) = (   0.0000000   0.1428571  -0.2857143), wk =   0.0174927
        k(   31) = (   0.0000000   0.1428571  -0.2142857), wk =   0.0174927
        k(   32) = (   0.0000000   0.1428571  -0.1428571), wk =   0.0087464
        k(   33) = (   0.0000000   0.2142857   0.2142857), wk =   0.0043732
        k(   34) = (   0.0000000   0.2142857   0.2857143), wk =   0.0174927
        k(   35) = (   0.0000000   0.2142857   0.3571429), wk =   0.0174927
        k(   36) = (   0.0000000   0.2142857   0.4285714), wk =   0.0174927
        k(   37) = (   0.0000000   0.2142857  -0.5000000), wk =   0.0174927
        k(   38) = (   0.0000000   0.2142857  -0.4285714), wk =   0.0174927
        k(   39) = (   0.0000000   0.2142857  -0.3571429), wk =   0.0174927
        k(   40) = (   0.0000000   0.2142857  -0.2857143), wk =   0.0174927
        k(   41) = (   0.0000000   0.2142857  -0.2142857), wk =   0.0087464
        k(   42) = (   0.0000000   0.2857143   0.2857143), wk =   0.0043732
        k(   43) = (   0.0000000   0.2857143   0.3571429), wk =   0.0174927
        k(   44) = (   0.0000000   0.2857143   0.4285714), wk =   0.0174927
        k(   45) = (   0.0000000   0.2857143  -0.5000000), wk =   0.0174927
        k(   46) = (   0.0000000   0.2857143  -0.4285714), wk =   0.0174927
        k(   47) = (   0.0000000   0.2857143  -0.3571429), wk =   0.0174927
        k(   48) = (   0.0000000   0.2857143  -0.2857143), wk =   0.0087464
        k(   49) = (   0.0000000   0.3571429   0.3571429), wk =   0.0043732
        k(   50) = (   0.0000000   0.3571429   0.4285714), wk =   0.0174927
        k(   51) = (   0.0000000   0.3571429  -0.5000000), wk =   0.0174927
        k(   52) = (   0.0000000   0.3571429  -0.4285714), wk =   0.0174927
        k(   53) = (   0.0000000   0.3571429  -0.3571429), wk =   0.0087464
        k(   54) = (   0.0000000   0.4285714   0.4285714), wk =   0.0043732
        k(   55) = (   0.0000000   0.4285714  -0.5000000), wk =   0.0174927
        k(   56) = (   0.0000000   0.4285714  -0.4285714), wk =   0.0087464
        k(   57) = (   0.0000000  -0.5000000  -0.5000000), wk =   0.0021866
        k(   58) = (   0.0714286   0.1428571   0.2142857), wk =   0.0174927
        k(   59) = (   0.0714286   0.1428571   0.2857143), wk =   0.0349854
        k(   60) = (   0.0714286   0.1428571   0.3571429), wk =   0.0349854
        k(   61) = (   0.0714286   0.1428571   0.4285714), wk =   0.0349854
        k(   62) = (   0.0714286   0.1428571  -0.5000000), wk =   0.0349854
        k(   63) = (   0.0714286   0.1428571  -0.4285714), wk =   0.0174927
        k(   64) = (   0.0714286   0.2142857   0.2857143), wk =   0.0174927
        k(   65) = (   0.0714286   0.2142857   0.3571429), wk =   0.0349854
        k(   66) = (   0.0714286   0.2142857   0.4285714), wk =   0.0349854
        k(   67) = (   0.0714286   0.2142857  -0.5000000), wk =   0.0349854
        k(   68) = (   0.0714286   0.2142857  -0.4285714), wk =   0.0349854
        k(   69) = (   0.0714286   0.2142857  -0.3571429), wk =   0.0349854
        k(   70) = (   0.0714286   0.2142857  -0.2857143), wk =   0.0349854
        k(   71) = (   0.0714286   0.2142857  -0.2142857), wk =   0.0349854
        k(   72) = (   0.0714286   0.2142857  -0.1428571), wk =   0.0174927
        k(   73) = (   0.0714286   0.2857143   0.3571429), wk =   0.0174927
        k(   74) = (   0.0714286   0.2857143   0.4285714), wk =   0.0349854
        k(   75) = (   0.0714286   0.2857143  -0.5000000), wk =   0.0349854
        k(   76) = (   0.0714286   0.2857143  -0.4285714), wk =   0.0349854
        k(   77) = (   0.0714286   0.2857143  -0.3571429), wk =   0.0349854
        k(   78) = (   0.0714286   0.2857143  -0.2857143), wk =   0.0349854
        k(   79) = (   0.0714286   0.2857143  -0.2142857), wk =   0.0174927
        k(   80) = (   0.0714286   0.3571429   0.4285714), wk =   0.0174927
        k(   81) = (   0.0714286   0.3571429  -0.5000000), wk =   0.0349854
        k(   82) = (   0.0714286   0.3571429  -0.4285714), wk =   0.0349854
        k(   83) = (   0.0714286   0.3571429  -0.3571429), wk =   0.0349854
        k(   84) = (   0.0714286   0.3571429  -0.2857143), wk =   0.0174927
        k(   85) = (   0.0714286   0.4285714  -0.5000000), wk =   0.0174927
        k(   86) = (   0.0714286   0.4285714  -0.4285714), wk =   0.0349854
        k(   87) = (   0.0714286   0.4285714  -0.3571429), wk =   0.0174927
        k(   88) = (   0.0714286  -0.5000000  -0.4285714), wk =   0.0087464
        k(   89) = (   0.1428571   0.2857143   0.4285714), wk =   0.0174927
        k(   90) = (   0.1428571   0.2857143  -0.5000000), wk =   0.0349854
        k(   91) = (   0.1428571   0.2857143  -0.4285714), wk =   0.0349854
        k(   92) = (   0.1428571   0.2857143  -0.3571429), wk =   0.0174927
        k(   93) = (   0.1428571   0.3571429  -0.5000000), wk =   0.0174927
        k(   94) = (   0.1428571   0.3571429  -0.4285714), wk =   0.0349854
        k(   95) = (   0.1428571   0.3571429  -0.3571429), wk =   0.0349854
        k(   96) = (   0.1428571   0.3571429  -0.2857143), wk =   0.0349854
        k(   97) = (   0.1428571   0.3571429  -0.2142857), wk =   0.0174927
        k(   98) = (   0.1428571   0.4285714  -0.4285714), wk =   0.0174927
        k(   99) = (   0.1428571   0.4285714  -0.3571429), wk =   0.0349854
        k(  100) = (   0.1428571   0.4285714  -0.2857143), wk =   0.0174927
        k(  101) = (   0.1428571  -0.5000000  -0.3571429), wk =   0.0087464
        k(  102) = (   0.2142857   0.4285714  -0.3571429), wk =   0.0174927
        k(  103) = (   0.2142857   0.4285714  -0.2857143), wk =   0.0174927
        k(  104) = (   0.2142857  -0.5000000  -0.2857143), wk =   0.0087464

     Dense  grid:     6879 G-vectors     FFT dimensions: (  27,  27,  27)

     Smooth grid:     2445 G-vectors     FFT dimensions: (  20,  20,  20)

     Dynamical RAM for                 wfc:       0.03 MB

     Dynamical RAM for     wfc (w. buffer):       2.97 MB

     Dynamical RAM for           str. fact:       0.10 MB

     Dynamical RAM for           local pot:       0.00 MB

     Dynamical RAM for          nlocal pot:       0.08 MB

     Dynamical RAM for                qrad:       2.49 MB

     Dynamical RAM for          rho,v,vnew:       0.77 MB

     Dynamical RAM for               rhoin:       0.26 MB

     Dynamical RAM for            rho*nmix:       1.68 MB

     Dynamical RAM for           G-vectors:       0.41 MB

     Dynamical RAM for          h,s,v(r/c):       0.01 MB

     Dynamical RAM for          <psi|beta>:       0.00 MB

     Dynamical RAM for                 psi:       0.06 MB

     Dynamical RAM for                hpsi:       0.06 MB

     Dynamical RAM for                spsi:       0.06 MB

     Dynamical RAM for      wfcinit/wfcrot:       0.06 MB

     Dynamical RAM for           addusdens:      19.63 MB

     Dynamical RAM for          addusforce:      19.68 MB

     Dynamical RAM for         addusstress:      21.10 MB

     Estimated static dynamical RAM per process >       8.04 MB

     Estimated max dynamical RAM per process >      30.82 MB

     Initial potential from superposition of free atoms

     starting charge    2.99771, renormalised to    3.00000
     Starting wfcs are    4 randomized atomic wfcs +    2 random wfcs
     Checking if some PAW data can be deallocated... 

     total cpu time spent up to now is        1.4 secs

     Self-consistent Calculation

     iteration #  1     ecut=    30.00 Ry     beta= 0.40
     Davidson diagonalization with overlap

---- Real-time Memory Report at c_bands before calling an iterative solver
            58 MiB given to the printing process from OS
             0 MiB allocation reported by mallinfo(arena+hblkhd)
          1873 MiB available memory on the node where the printing process lives
------------------
     ethr =  1.00E-02,  avg # of iterations =  5.9

     Threshold (ethr) on eigenvalues was too large:
     Diagonalizing with lowered threshold

     Davidson diagonalization with overlap

---- Real-time Memory Report at c_bands before calling an iterative solver
            62 MiB given to the printing process from OS
             0 MiB allocation reported by mallinfo(arena+hblkhd)
          1854 MiB available memory on the node where the printing process lives
------------------
     ethr =  1.86E-04,  avg # of iterations =  3.2

     total cpu time spent up to now is        2.7 secs

     total energy              =     -39.50256071 Ry
     estimated scf accuracy    <       0.00550637 Ry

     iteration #  2     ecut=    30.00 Ry     beta= 0.40
     Davidson diagonalization with overlap

---- Real-time Memory Report at c_bands before calling an iterative solver
            63 MiB given to the printing process from OS
             0 MiB allocation reported by mallinfo(arena+hblkhd)
          1851 MiB available memory on the node where the printing process lives
------------------
     ethr =  1.84E-04,  avg # of iterations =  1.1

     total cpu time spent up to now is        3.1 secs

     total energy              =     -39.50211607 Ry
     estimated scf accuracy    <       0.00186977 Ry

     iteration #  3     ecut=    30.00 Ry     beta= 0.40
     Davidson diagonalization with overlap

---- Real-time Memory Report at c_bands before calling an iterative solver
            63 MiB given to the printing process from OS
             0 MiB allocation reported by mallinfo(arena+hblkhd)
          1851 MiB available memory on the node where the printing process lives
------------------
     ethr =  6.23E-05,  avg # of iterations =  1.4

     total cpu time spent up to now is        3.5 secs

     total energy              =     -39.50214494 Ry
     estimated scf accuracy    <       0.00000257 Ry

     iteration #  4     ecut=    30.00 Ry     beta= 0.40
     Davidson diagonalization with overlap

---- Real-time Memory Report at c_bands before calling an iterative solver
            63 MiB given to the printing process from OS
             0 MiB allocation reported by mallinfo(arena+hblkhd)
          1850 MiB available memory on the node where the printing process lives
------------------
     c_bands:  1 eigenvalues not converged
     ethr =  8.57E-08,  avg # of iterations =  4.2

     total cpu time spent up to now is        4.0 secs

     total energy              =     -39.50214563 Ry
     estimated scf accuracy    <       0.00000010 Ry

     iteration #  5     ecut=    30.00 Ry     beta= 0.40
     Davidson diagonalization with overlap

---- Real-time Memory Report at c_bands before calling an iterative solver
            63 MiB given to the printing process from OS
             0 MiB allocation reported by mallinfo(arena+hblkhd)
          1850 MiB available memory on the node where the printing process lives
------------------
     ethr =  3.26E-09,  avg # of iterations =  1.4

     total cpu time spent up to now is        4.4 secs

     total energy              =     -39.50214564 Ry
     estimated scf accuracy    <          2.2E-10 Ry

     iteration #  6     ecut=    30.00 Ry     beta= 0.40
     Davidson diagonalization with overlap

---- Real-time Memory Report at c_bands before calling an iterative solver
            63 MiB given to the printing process from OS
             0 MiB allocation reported by mallinfo(arena+hblkhd)
          1849 MiB available memory on the node where the printing process lives
------------------
     ethr =  7.27E-12,  avg # of iterations =  3.3

     total cpu time spent up to now is        4.9 secs

     End of self-consistent calculation

          k = 0.0000 0.0000 0.0000 (   331 PWs)   bands (ev):

    -3.2293  20.5297  20.5297  22.0349  22.0349  22.0349

     occupation numbers 
     1.0000   0.0000   0.0000   0.0000   0.0000   0.0000

          k =-0.0505 0.0505 0.0505 (   316 PWs)   bands (ev):

    -3.0904  18.4004  20.0765  20.0766  22.6942  22.7013

     occupation numbers 
     1.0000   0.0000   0.0000   0.0000   0.0000   0.0000

          k =-0.1010 0.1010 0.1010 (   310 PWs)   bands (ev):

    -2.6747  15.5154  19.4458  19.4458  22.6055  23.8178

     occupation numbers 
     1.0000   0.0000   0.0000   0.0000   0.0000   0.0000

          k =-0.1515 0.1515 0.1515 (   311 PWs)   bands (ev):

    -1.9847  12.7029  18.9810  18.9810  22.3790  23.3116

     occupation numbers 
     1.0000   0.0000   0.0000   0.0000   0.0000   0.0000

          k =-0.2020 0.2020 0.2020 (   305 PWs)   bands (ev):

    -1.0242  10.0604  18.7310  18.7310  22.0466  22.0471

     occupation numbers 
     1.0000   0.0000   0.0000   0.0000   0.0000   0.0000

          k =-0.2525 0.2525 0.2525 (   308 PWs)   bands (ev):

     0.2013   7.6229  18.7076  18.7076  20.9301  20.9301

     occupation numbers 
     1.0000   1.0355   0.0000   0.0000   0.0000   0.0000

          k =-0.3030 0.3030 0.3030 (   314 PWs)   bands (ev):

     1.6848   5.4090  18.9150  18.9150  20.0285  20.0285

     occupation numbers 
     1.0000   1.0000   0.0000   0.0000   0.0000   0.0000

          k = 0.3536-0.3536-0.3536 (   302 PWs)   bands (ev):

     3.3165   3.5336  19.3373  19.3373  19.3737  19.3737

     occupation numbers 
     1.0000   1.0000   0.0000   0.0000   0.0000   0.0000

          k = 0.0000 0.0000 0.1010 (   315 PWs)   bands (ev):

    -3.0442  19.1150  19.1151  19.4074  21.6030  23.7178

     occupation numbers 
     1.0000   0.0000   0.0000   0.0000   0.0000   0.0000

          k =-0.0505 0.0505 0.1515 (   311 PWs)   bands (ev):

    -2.7209  16.5319  18.3285  19.4928  21.8768  23.5634

     occupation numbers 
     1.0000   0.0000   0.0000   0.0000   0.0000   0.0000

          k =-0.1010 0.1010 0.2020 (   315 PWs)   bands (ev):

    -2.1224  13.7139  17.7604  19.1823  21.7323  23.3388

     occupation numbers 
     1.0000   0.0000   0.0000   0.0000   0.0000   0.0000

          k =-0.1515 0.1515 0.2525 (   307 PWs)   bands (ev):

    -1.2523  11.0234  17.4210  18.9131  20.3355  23.7296

     occupation numbers 
     1.0000   0.0000   0.0000   0.0000   0.0000   0.0000

          k =-0.2020 0.2020 0.3030 (   304 PWs)   bands (ev):

    -0.1155   8.5218  17.3136  18.8243  19.1174  22.8496

     occupation numbers 
     1.0000   0.0001   0.0000   0.0000   0.0000   0.0000

          k =-0.2525 0.2525 0.3536 (   309 PWs)   bands (ev):

     1.2817   6.2356  17.4401  18.0901  18.9961  21.8901

     occupation numbers 
     1.0000   1.0000   0.0000   0.0000   0.0000   0.0000

          k = 0.4041-0.4041-0.3030 (   315 PWs)   bands (ev):

     2.9264   4.1854  17.3218  17.8015  19.3819  21.1477

     occupation numbers 
     1.0000   1.0000   0.0000   0.0000   0.0000   0.0000

          k = 0.3536-0.3536-0.2525 (   307 PWs)   bands (ev):

     2.3530   4.8397  16.7917  18.3978  20.0076  20.6332

     occupation numbers 
     1.0000   1.0000   0.0000   0.0000   0.0000   0.0000

          k = 0.3030-0.3030-0.2020 (   309 PWs)   bands (ev):

     0.7876   6.9716  16.5034  19.2247  20.3518  20.8657

     occupation numbers 
     1.0000   1.0002   0.0000   0.0000   0.0000   0.0000

          k = 0.2525-0.2525-0.1515 (   305 PWs)   bands (ev):

    -0.5237   9.3301  16.4579  20.1664  20.4112  21.9409

     occupation numbers 
     1.0000   0.0000   0.0000   0.0000   0.0000   0.0000

          k = 0.2020-0.2020-0.1010 (   308 PWs)   bands (ev):

    -1.5722  11.8934  16.6565  20.4187  21.5782  23.0980

     occupation numbers 
     1.0000   0.0000   0.0000   0.0000   0.0000   0.0000

          k = 0.1515-0.1515-0.0505 (   312 PWs)   bands (ev):

    -2.3523  14.6139  17.1100  20.7511  22.7136  23.2954

     occupation numbers 
     1.0000   0.0000   0.0000   0.0000   0.0000   0.0000

          k = 0.1010-0.1010 0.0000 (   315 PWs)   bands (ev):

    -2.8593  17.1878  18.0237  20.8906  22.2525  23.1854

     occupation numbers 
     1.0000   0.0000   0.0000   0.0000   0.0000   0.0000

          k = 0.0000 0.0000 0.2020 (   307 PWs)   bands (ev):

    -2.4904  17.4362  17.4362  17.6449  20.6028  21.6303

     occupation numbers 
     1.0000   0.0000   0.0000   0.0000   0.0000   0.0000

          k =-0.0505 0.0505 0.2525 (   308 PWs)   bands (ev):

    -1.9846  14.8870  16.7765  18.0135  19.8324  20.8376

     occupation numbers 
     1.0000   0.0000   0.0000   0.0000   0.0000   0.0000

          k =-0.1010 0.1010 0.3030 (   306 PWs)   bands (ev):

    -1.2067  12.2020  16.3515  17.8851  18.3066  22.1883

     occupation numbers 
     1.0000   0.0000   0.0000   0.0000   0.0000   0.0000

          k =-0.1515 0.1515 0.3536 (   307 PWs)   bands (ev):

    -0.1609   9.6586  16.1615  16.8878  17.8644  23.9811

     occupation numbers 
     1.0000   0.0000   0.0000   0.0000   0.0000   0.0000

          k =-0.2020 0.2020 0.4041 (   307 PWs)   bands (ev):

     1.1465   7.3121  15.7865  16.2072  17.9500  23.9730

     occupation numbers 
     1.0000   1.0275   0.0000   0.0000   0.0000   0.0000

          k = 0.4546-0.4546-0.2525 (   307 PWs)   bands (ev):

     2.7065   5.1886  14.9201  16.4888  18.2772  23.1712

     occupation numbers 
     1.0000   1.0000   0.0000   0.0000   0.0000   0.0000

          k = 0.4041-0.4041-0.2020 (   303 PWs)   bands (ev):

     3.2787   4.5342  14.3004  17.0067  18.8500  22.5868

     occupation numbers 
     1.0000   1.0000   0.0000   0.0000   0.0000   0.0000

          k = 0.3536-0.3536-0.1515 (   310 PWs)   bands (ev):

     1.6397   6.5711  13.9338  17.7604  19.6644  22.2271

     occupation numbers 
     1.0000   1.0000   0.0000   0.0000   0.0000   0.0000

          k = 0.3030-0.3030-0.1010 (   311 PWs)   bands (ev):

     0.2464   8.8319  13.8299  18.7463  20.7086  22.0887

     occupation numbers 
     1.0000   0.0000   0.0000   0.0000   0.0000   0.0000

          k = 0.2525-0.2525-0.0505 (   311 PWs)   bands (ev):

    -0.8875  11.2582  14.0245  19.9517  21.9575  22.1347

     occupation numbers 
     1.0000   0.0000   0.0000   0.0000   0.0000   0.0000

          k = 0.2020-0.2020-0.0000 (   311 PWs)   bands (ev):

    -1.7554  13.4984  14.8359  21.3257  21.9695  23.3483

     occupation numbers 
     1.0000   0.0000   0.0000   0.0000   0.0000   0.0000

          k = 0.0000 0.0000 0.3030 (   303 PWs)   bands (ev):

    -1.5722  16.0307  16.0307  16.0698  17.9510  19.4724

     occupation numbers 
     1.0000   0.0000   0.0000   0.0000   0.0000   0.0000

          k =-0.0505 0.0505 0.3536 (   309 PWs)   bands (ev):

    -0.8877  13.5443  15.5224  16.2392  16.7339  19.7275

     occupation numbers 
     1.0000   0.0000   0.0000   0.0000   0.0000   0.0000

          k =-0.1010 0.1010 0.4041 (   308 PWs)   bands (ev):

     0.0650  11.0110  14.8084  15.2509  16.8079  21.2101

     occupation numbers 
     1.0000   0.0000   0.0000   0.0000   0.0000   0.0000

          k =-0.1515 0.1515 0.4546 (   316 PWs)   bands (ev):

     1.2798   8.6256  13.6011  15.2158  16.8850  23.2035

     occupation numbers 
     1.0000   0.0000   0.0000   0.0000   0.0000   0.0000

          k = 0.5051-0.5051-0.2020 (   311 PWs)   bands (ev):

     2.7483   6.4431  12.6394  15.4171  17.1557  25.3524

     occupation numbers 
     1.0000   1.0000   0.0000   0.0000   0.0000   0.0000

          k = 0.4546-0.4546-0.1515 (   303 PWs)   bands (ev):

     4.3422   4.6047  11.9330  15.8553  17.6644  24.7657

     occupation numbers 
     1.0000   1.0000   0.0000   0.0000   0.0000   0.0000

          k = 0.4041-0.4041-0.1010 (   301 PWs)   bands (ev):

     2.7521   6.4152  11.4964  16.5305  18.4176  24.3369

     occupation numbers 
     1.0000   1.0000   0.0000   0.0000   0.0000   0.0000

          k = 0.3536-0.3536-0.0505 (   310 PWs)   bands (ev):

     1.2813   8.5261  11.3769  17.4421  19.4064  24.1098

     occupation numbers 
     1.0000   0.0001   0.0000   0.0000   0.0000   0.0000

          k = 0.3030-0.3030 0.0000 (   307 PWs)   bands (ev):

     0.0655  10.4323  11.9381  18.5867  20.6071  23.7532

     occupation numbers 
     1.0000   0.0000   0.0000   0.0000   0.0000   0.0000

          k = 0.0000 0.0000 0.4041 (   311 PWs)   bands (ev):

    -0.2973  14.4720  14.8118  14.9323  14.9323  18.4459

     occupation numbers 
     1.0000   0.0000   0.0000   0.0000   0.0000   0.0000

          k =-0.0505 0.0505 0.4546 (   314 PWs)   bands (ev):

     0.5606  12.4983  12.9507  14.5801  15.6867  18.8266

     occupation numbers 
     1.0000   0.0000   0.0000   0.0000   0.0000   0.0000

          k =-0.1010 0.1010 0.5051 (   313 PWs)   bands (ev):

     1.6800  10.1424  11.6324  14.4647  15.9462  20.4676

     occupation numbers 
     1.0000   0.0000   0.0000   0.0000   0.0000   0.0000

          k = 0.5556-0.5556-0.1515 (   307 PWs)   bands (ev):

     3.0515   7.9283  10.5742  14.5858  16.2008  22.6398

     occupation numbers 
     1.0000   0.3397   0.0000   0.0000   0.0000   0.0000

          k = 0.5051-0.5051-0.1010 (   304 PWs)   bands (ev):

     4.6501   5.9250   9.7869  14.9437  16.6511  25.0262

     occupation numbers 
     1.0000   1.0000   0.0000   0.0000   0.0000   0.0000

          k = 0.4546-0.4546-0.0505 (   309 PWs)   bands (ev):

     4.1160   6.4640   9.3197  15.5390  17.3385  26.6574

     occupation numbers 
     1.0000   1.0000   0.0000   0.0000   0.0000   0.0000

          k = 0.4041-0.4041 0.0000 (   303 PWs)   bands (ev):

     2.5747   8.0457   9.5542  16.3719  18.2637  26.2096

     occupation numbers 
     1.0000   0.1285   0.0000   0.0000   0.0000   0.0000

          k = 0.0000 0.0000 0.5051 (   314 PWs)   bands (ev):

     1.3220  11.2605  13.9034  14.1475  14.1475  17.6517

     occupation numbers 
     1.0000   0.0000   0.0000   0.0000   0.0000   0.0000

          k =-0.0505 0.0505 0.5556 (   316 PWs)   bands (ev):

     2.3424   9.8497  11.8632  13.9522  14.9946  18.1940

     occupation numbers 
     1.0000   0.0000   0.0000   0.0000   0.0000   0.0000

          k = 0.6061-0.6061-0.1010 (   312 PWs)   bands (ev):

     3.6071   8.6832   9.6953  13.9933  15.4195  20.0068

     occupation numbers 
     1.0000   0.0000   0.0000   0.0000   0.0000   0.0000

          k = 0.5556-0.5556-0.0505 (   305 PWs)   bands (ev):

     5.0672   7.4740   8.0306  14.2711  15.8513  22.3481

     occupation numbers 
     1.0000   1.0779   0.1485   0.0000   0.0000   0.0000

          k = 0.5051-0.5051 0.0000 (   304 PWs)   bands (ev):

     5.7136   6.3449   7.8114  14.7861  16.4796  24.9055

     occupation numbers 
     1.0000   1.0000   0.6485   0.0000   0.0000   0.0000

          k = 0.0000 0.0000 0.6061 (   314 PWs)   bands (ev):

     3.2553   8.3674  13.3555  13.6770  13.6770  17.1537

     occupation numbers 
     1.0000   0.0015   0.0000   0.0000   0.0000   0.0000

          k = 0.6566-0.6566-0.0505 (   308 PWs)   bands (ev):

     4.3762   7.1798  11.5185  13.6385  14.6469  17.8691

     occupation numbers 
     1.0000   1.0060   0.0000   0.0000   0.0000   0.0000

          k = 0.6061-0.6061 0.0000 (   310 PWs)   bands (ev):

     5.3270   6.6667   9.5010  13.8363  15.2425  19.8508

     occupation numbers 
     1.0000   1.0000   0.0000   0.0000   0.0000   0.0000

          k = 0.0000 0.0000-0.7071 (   302 PWs)   bands (ev):

     4.9881   6.3141  13.1725  13.5203  13.5203  16.9843

     occupation numbers 
     1.0000   1.0000   0.0000   0.0000   0.0000   0.0000

          k = 0.0000 0.1010 0.2020 (   311 PWs)   bands (ev):

    -2.3063  15.3605  16.4247  19.9667  21.4517  22.0424

     occupation numbers 
     1.0000   0.0000   0.0000   0.0000   0.0000   0.0000

          k =-0.0505 0.1515 0.2525 (   310 PWs)   bands (ev):

    -1.6180  12.9438  15.5751  20.0538  20.1104  22.8127

     occupation numbers 
     1.0000   0.0000   0.0000   0.0000   0.0000   0.0000

          k =-0.1010 0.2020 0.3030 (   308 PWs)   bands (ev):

    -0.6600  10.3678  15.2513  18.6862  19.9669  23.3954

     occupation numbers 
     1.0000   0.0000   0.0000   0.0000   0.0000   0.0000

          k =-0.1515 0.2525 0.3536 (   309 PWs)   bands (ev):

     0.5622   7.9547  15.2001  17.5146  19.9874  22.3197

     occupation numbers 
     1.0000   0.2810   0.0000   0.0000   0.0000   0.0000

          k = 0.5051-0.4041-0.3030 (   308 PWs)   bands (ev):

     2.0413   5.7535  15.3959  16.5836  20.2161  21.4116

     occupation numbers 
     1.0000   1.0000   0.0000   0.0000   0.0000   0.0000

          k = 0.4546-0.3536-0.2525 (   308 PWs)   bands (ev):

     3.6589   3.8944  15.7214  16.0128  20.5591  20.8382

     occupation numbers 
     1.0000   1.0000   0.0000   0.0000   0.0000   0.0000

          k = 0.0000 0.1010 0.3030 (   307 PWs)   bands (ev):

    -1.3893  13.8420  15.0118  18.1216  18.5745  20.6983

     occupation numbers 
     1.0000   0.0000   0.0000   0.0000   0.0000   0.0000

          k =-0.0505 0.1515 0.3536 (   308 PWs)   bands (ev):

    -0.5239  11.5887  14.2795  16.6161  18.9022  21.8073

     occupation numbers 
     1.0000   0.0000   0.0000   0.0000   0.0000   0.0000

          k =-0.1010 0.2020 0.4041 (   312 PWs)   bands (ev):

     0.6067   9.1685  14.0923  15.3506  18.9701  23.5759

     occupation numbers 
     1.0000   0.0000   0.0000   0.0000   0.0000   0.0000

          k = 0.5556-0.4546-0.2525 (   309 PWs)   bands (ev):

     1.9954   6.9151  14.0548  14.4597  19.1664  23.5100

     occupation numbers 
     1.0000   1.0001   0.0000   0.0000   0.0000   0.0000

          k = 0.5051-0.4041-0.2020 (   308 PWs)   bands (ev):

     3.6267   4.8854  13.4496  14.6418  19.5740  22.7803

     occupation numbers 
     1.0000   1.0000   0.0000   0.0000   0.0000   0.0000

          k = 0.4546-0.3536-0.1515 (   307 PWs)   bands (ev):

     3.0605   5.5274  12.9303  15.2438  20.2074  22.2515

     occupation numbers 
     1.0000   1.0000   0.0000   0.0000   0.0000   0.0000

          k = 0.4041-0.3030-0.1010 (   311 PWs)   bands (ev):

     1.5051   7.6258  12.6665  16.1028  21.0494  21.9483

     occupation numbers 
     1.0000   1.0325   0.0000   0.0000   0.0000   0.0000

          k = 0.3536-0.2525-0.0505 (   310 PWs)   bands (ev):

     0.2010   9.8947  12.7088  17.2044  21.6858  22.1970

     occupation numbers 
     1.0000   0.0000   0.0000   0.0000   0.0000   0.0000

          k = 0.3030-0.2020-0.0000 (   311 PWs)   bands (ev):

    -0.8420  11.9674  13.3998  18.5367  21.3521  22.7370

     occupation numbers 
     1.0000   0.0000   0.0000   0.0000   0.0000   0.0000

          k = 0.0000 0.1010 0.4041 (   310 PWs)   bands (ev):

    -0.1161  12.6524  13.8398  14.7150  17.4248  19.7132

     occupation numbers 
     1.0000   0.0000   0.0000   0.0000   0.0000   0.0000

          k =-0.0505 0.1515 0.4546 (   313 PWs)   bands (ev):

     0.9206  10.5624  13.0627  13.5345  17.9334  20.9638

     occupation numbers 
     1.0000   0.0000   0.0000   0.0000   0.0000   0.0000

          k = 0.6061-0.5051-0.2020 (   309 PWs)   bands (ev):

     2.2154   8.3047  12.1018  13.3491  18.1769  22.9688

     occupation numbers 
     1.0000   0.0044   0.0000   0.0000   0.0000   0.0000

          k = 0.5556-0.4546-0.1515 (   308 PWs)   bands (ev):

     3.7556   6.2203  11.2423  13.6040  18.5449  24.8284

     occupation numbers 
     1.0000   1.0000   0.0000   0.0000   0.0000   0.0000

          k = 0.5051-0.4041-0.1010 (   305 PWs)   bands (ev):

     4.3277   5.5541  10.6383  14.1322  19.1236  24.4735

     occupation numbers 
     1.0000   1.0000   0.0000   0.0000   0.0000   0.0000

          k = 0.4546-0.3536-0.0505 (   305 PWs)   bands (ev):

     2.7071   7.4950  10.3498  14.9143  19.9270  24.0504

     occupation numbers 
     1.0000   1.0817   0.0000   0.0000   0.0000   0.0000

          k = 0.4041-0.3030 0.0000 (   306 PWs)   bands (ev):

     1.3258   9.2386  10.7529  15.9414  20.9423  23.4107

     occupation numbers 
     1.0000   0.0000   0.0000   0.0000   0.0000   0.0000

          k = 0.0000 0.1010 0.5051 (   316 PWs)   bands (ev):

     1.5012  11.4073  11.7995  13.1315  16.5906  18.9563

     occupation numbers 
     1.0000   0.0000   0.0000   0.0000   0.0000   0.0000

          k = 0.6566-0.5556-0.1515 (   309 PWs)   bands (ev):

     2.6975   9.8145  10.2681  12.6850  17.2702  20.3684

     occupation numbers 
     1.0000   0.0000   0.0000   0.0000   0.0000   0.0000

          k = 0.6061-0.5051-0.1010 (   311 PWs)   bands (ev):

     4.1328   7.7692   9.2750  12.8266  17.6851  22.5508

     occupation numbers 
     1.0000   0.7615   0.0000   0.0000   0.0000   0.0000

          k = 0.5556-0.4546-0.0505 (   302 PWs)   bands (ev):

     5.6811   5.9381   8.6245  13.2655  18.2228  24.9748

     occupation numbers 
     1.0000   1.0000   0.0000   0.0000   0.0000   0.0000

          k = 0.5051-0.4041 0.0000 (   310 PWs)   bands (ev):

     4.1589   7.1948   8.6779  13.9653  18.9676  26.1021

     occupation numbers 
     1.0000   1.0073   0.0000   0.0000   0.0000   0.0000

          k = 0.7071-0.6061-0.1010 (   314 PWs)   bands (ev):

     3.4314   8.5363  11.2866  12.6234  16.0874  18.4834

     occupation numbers 
     1.0000   0.0000   0.0000   0.0000   0.0000   0.0000

          k = 0.6566-0.5556-0.0505 (   310 PWs)   bands (ev):

     4.7226   7.5214   9.5639  12.3435  16.9353  20.0623

     occupation numbers 
     1.0000   1.0833   0.0000   0.0000   0.0000   0.0000

          k = 0.6061-0.5051 0.0000 (   306 PWs)   bands (ev):

     5.8357   7.1016   7.7511  12.6571  17.5193  22.4069

     occupation numbers 
     1.0000   1.0019   0.8072   0.0000   0.0000   0.0000

          k = 0.0000 0.1010-0.7071 (   308 PWs)   bands (ev):

     5.1575   6.4926  11.1155  12.4567  15.9195  18.3230

     occupation numbers 
     1.0000   1.0000   0.0000   0.0000   0.0000   0.0000

          k = 0.0000 0.2020 0.4041 (   313 PWs)   bands (ev):

     0.4263  10.7743  12.2306  15.1831  20.2903  22.0295

     occupation numbers 
     1.0000   0.0000   0.0000   0.0000   0.0000   0.0000

          k = 0.6566-0.4546-0.2525 (   313 PWs)   bands (ev):

     1.6381   8.8659  11.6837  13.9851  20.8718  23.0878

     occupation numbers 
     1.0000   0.0000   0.0000   0.0000   0.0000   0.0000

          k = 0.6061-0.4041-0.2020 (   307 PWs)   bands (ev):

     3.1026   6.7601  11.7837  13.0498  21.2046  22.4702

     occupation numbers 
     1.0000   1.0000   0.0000   0.0000   0.0000   0.0000

          k = 0.5556-0.3536-0.1515 (   308 PWs)   bands (ev):

     4.6832   4.9539  12.0166  12.5488  21.5202  21.9642

     occupation numbers 
     1.0000   1.0000   0.0000   0.0000   0.0000   0.0000

          k = 0.7071-0.5051-0.2020 (   311 PWs)   bands (ev):

     2.0371   9.9215  11.2656  12.1300  19.4794  21.3702

     occupation numbers 
     1.0000   0.0000   0.0000   0.0000   0.0000   0.0000

          k = 0.6566-0.4546-0.1515 (   308 PWs)   bands (ev):

     3.4048   8.1747  10.6688  11.3053  20.2487  22.9923

     occupation numbers 
     1.0000   0.0298   0.0000   0.0000   0.0000   0.0000

          k = 0.6061-0.4041-0.1010 (   304 PWs)   bands (ev):

     4.9985   6.2441  10.0752  11.4112  20.7713  24.0606

     occupation numbers 
     1.0000   1.0000   0.0000   0.0000   0.0000   0.0000

          k = 0.5556-0.3536-0.0505 (   305 PWs)   bands (ev):

     4.4572   6.8071   9.6391  11.9896  21.4231  23.5360

     occupation numbers 
     1.0000   1.0000   0.0000   0.0000   0.0000   0.0000

          k = 0.5051-0.3030 0.0000 (   313 PWs)   bands (ev):

     2.9259   8.3865   9.8751  12.8581  22.2351  22.6722

     occupation numbers 
     1.0000   0.0011   0.0000   0.0000   0.0000   0.0000

          k = 0.7071-0.5051-0.1010 (   311 PWs)   bands (ev):

     3.9582   9.0219   9.4096  10.9904  18.9839  20.9428

     occupation numbers 
     1.0000   0.0000   0.0000   0.0000   0.0000   0.0000

          k = 0.6566-0.4546-0.0505 (   306 PWs)   bands (ev):

     5.4127   7.7649   8.3015  10.7546  19.9277  22.7519

     occupation numbers 
     1.0000   0.7727   0.0047   0.0000   0.0000   0.0000

          k = 0.6061-0.4041 0.0000 (   303 PWs)   bands (ev):

     6.0355   6.6848   8.1399  11.2086  20.6184  25.0395

     occupation numbers 
     1.0000   1.0000   0.0460   0.0000   0.0000   0.0000

          k =-0.0000 0.2020-0.7071 (   304 PWs)   bands (ev):

     5.6661   7.0188   9.2390  10.7960  18.8177  20.7963

     occupation numbers 
     1.0000   1.0005   0.0000   0.0000   0.0000   0.0000

          k = 0.7071-0.4041-0.1010 (   307 PWs)   bands (ev):

     4.8311   7.8756   9.2077  10.1594  22.1965  23.3766

     occupation numbers 
     1.0000   0.4721   0.0000   0.0000   0.0000   0.0000

          k = 0.6566-0.3536-0.0505 (   310 PWs)   bands (ev):

     6.3474   6.5506   8.9761   9.7037  23.0099  23.3804

     occupation numbers 
     1.0000   1.0000   0.0000   0.0000   0.0000   0.0000

          k = 0.0000 0.3030-0.7071 (   308 PWs)   bands (ev):

     6.5148   7.7054   7.8191   9.3731  22.0352  23.4807

     occupation numbers 
     1.0000   0.9100   0.6272   0.0000   0.0000   0.0000

     the Fermi energy is     7.9032 ev

!    total energy              =     -39.50214564 Ry

     total all-electron energy =      -485.644927 Ry
     estimated scf accuracy    <          1.7E-10 Ry
     smearing contrib. (-TS)   =      -0.00009414 Ry
     internal energy E=F+TS    =     -39.50205150 Ry

     The total energy is F=E-TS. E is the sum of the following terms:
     one-electron contribution =       3.16721034 Ry
     hartree contribution      =       0.00581076 Ry
     xc contribution           =      -2.59098954 Ry
     ewald contribution        =      -5.40491107 Ry
     one-center paw contrib.   =     -34.67917199 Ry
      -> PAW hartree energy AE =       1.36744093 Ry
      -> PAW hartree energy PS =      -1.36278995 Ry
      -> PAW xc energy AE      =     -36.56985739 Ry
      -> PAW xc energy PS      =       1.88603442 Ry
      -> total E_H with PAW    =       0.01046174 Ry
      -> total E_XC with PAW   =     -37.27481251 Ry

     convergence has been achieved in   6 iterations

     Forces acting on atoms (cartesian axes, Ry/au):

     atom    1 type  1   force =     0.00000000    0.00000000    0.00000000
     The non-local contrib.  to forces
     atom    1 type  1   force =     0.00000000   -0.00000000    0.00000000
     The ionic contribution  to forces
     atom    1 type  1   force =    -0.00000000   -0.00000000   -0.00000000
     The local contribution  to forces
     atom    1 type  1   force =     0.00000000    0.00000000    0.00000000
     The core correction contribution to forces
     atom    1 type  1   force =     0.00000000   -0.00000000    0.00000000
     The Hubbard contrib.    to forces
     atom    1 type  1   force =     0.00000000    0.00000000    0.00000000
     The SCF correction term to forces
     atom    1 type  1   force =     0.00000000    0.00000000   -0.00000000

     Total force =     0.000000     Total SCF correction =     0.000000


     Computing stress (Cartesian axis) and pressure

          total   stress  (Ry/bohr**3)                   (kbar)     P=       -1.81
  -0.00001228  -0.00000000  -0.00000000           -1.81       -0.00       -0.00
  -0.00000000  -0.00001228  -0.00000000           -0.00       -1.81       -0.00
  -0.00000000  -0.00000000  -0.00001228           -0.00       -0.00       -1.81

     kinetic stress (kbar)   1465.68      0.00      0.00
                                0.00   1465.68     -0.00
                                0.00     -0.00   1465.68

     local   stress (kbar)    644.06      0.00      0.00
                                0.00    644.06     -0.00
                                0.00     -0.00    644.06

     nonloc. stress (kbar)   1051.50     -0.00      0.00
                               -0.00   1051.50     -0.00
                                0.00     -0.00   1051.50

     hartree stress (kbar)      2.56      0.00      0.00
                                0.00      2.56     -0.00
                                0.00     -0.00      2.56

     exc-cor stress (kbar)    505.02      0.00     -0.00
                                0.00    505.02      0.00
                               -0.00      0.00    505.02

     corecor stress (kbar)  -1288.23      0.00     -0.00
                                0.00  -1288.23     -0.00
                               -0.00     -0.00  -1288.23

     ewald   stress (kbar)  -2382.40      0.00      0.00
                                0.00  -2382.40      0.00
                                0.00      0.00  -2382.40

     hubbard stress (kbar)      0.00      0.00      0.00
                                0.00      0.00      0.00
                                0.00      0.00      0.00

     DFT-D   stress (kbar)      0.00      0.00      0.00
                                0.00      0.00      0.00
                                0.00      0.00      0.00

     XDM     stress (kbar)      0.00      0.00      0.00
                                0.00      0.00      0.00
                                0.00      0.00      0.00

     dft-nl  stress (kbar)      0.00      0.00      0.00
                                0.00      0.00      0.00
                                0.00      0.00      0.00

     TS-vdW  stress (kbar)      0.00      0.00      0.00
                                0.00      0.00      0.00
                                0.00      0.00      0.00


                                0.00      0.00      0.00
                                0.00      0.00      0.00


                                0.00      0.00      0.00


     BFGS Geometry Optimization
     Energy error            =      0.0E+00 Ry
     Gradient error          =      0.0E+00 Ry/Bohr
     Cell gradient error     =      1.8E+00 kbar

     number of scf cycles    =   1
     number of bfgs steps    =   0

     enthalpy           new  =     -39.5021456405 Ry

     new trust radius        =       0.0006473521 bohr
     Message from routine volume:
     axis vectors are left-handed
     new conv_thr            =       0.0000000002 Ry

     new unit-cell volume =    111.14267 a.u.^3 (    16.46964 Ang^3 )
     density =      2.72039 g/cm^3

CELL_PARAMETERS (angstrom)
   2.019380100   2.019380100  -0.000000000
   2.019380100  -0.000000000   2.019380100
  -0.000000000   2.019380100   2.019380100

ATOMIC_POSITIONS (angstrom)
Al            0.0000000000        0.0000000000        0.0000000000



     Writing output data file ./al.save/
     NEW-OLD atomic charge density approx. for the potential
     extrapolated charge    2.99724, renormalised to    3.00000

     total cpu time spent up to now is        6.1 secs

     Self-consistent Calculation

     iteration #  1     ecut=    30.00 Ry     beta= 0.40
     Davidson diagonalization with overlap

---- Real-time Memory Report at c_bands before calling an iterative solver
            63 MiB given to the printing process from OS
             0 MiB allocation reported by mallinfo(arena+hblkhd)
          1848 MiB available memory on the node where the printing process lives
------------------
     ethr =  1.00E-06,  avg # of iterations =  2.0

     Threshold (ethr) on eigenvalues was too large:
     Diagonalizing with lowered threshold

     Davidson diagonalization with overlap

---- Real-time Memory Report at c_bands before calling an iterative solver
            63 MiB given to the printing process from OS
             0 MiB allocation reported by mallinfo(arena+hblkhd)
          1849 MiB available memory on the node where the printing process lives
------------------
     ethr =  2.57E-10,  avg # of iterations =  2.5

     total cpu time spent up to now is        6.8 secs

     total energy              =     -39.50214666 Ry
     estimated scf accuracy    <          6.7E-09 Ry

     iteration #  2     ecut=    30.00 Ry     beta= 0.40
     Davidson diagonalization with overlap

---- Real-time Memory Report at c_bands before calling an iterative solver
            63 MiB given to the printing process from OS
             0 MiB allocation reported by mallinfo(arena+hblkhd)
          1849 MiB available memory on the node where the printing process lives
------------------
     ethr =  2.23E-10,  avg # of iterations =  1.3

     total cpu time spent up to now is        7.2 secs

     total energy              =     -39.50214666 Ry
     estimated scf accuracy    <          1.9E-09 Ry

     iteration #  3     ecut=    30.00 Ry     beta= 0.40
     Davidson diagonalization with overlap

---- Real-time Memory Report at c_bands before calling an iterative solver
            63 MiB given to the printing process from OS
             0 MiB allocation reported by mallinfo(arena+hblkhd)
          1849 MiB available memory on the node where the printing process lives
------------------
     ethr =  6.17E-11,  avg # of iterations =  1.1

     total cpu time spent up to now is        7.6 secs

     End of self-consistent calculation

          k = 0.0000 0.0000 0.0000 (   331 PWs)   bands (ev):

    -3.2261  20.5443  20.5443  22.0564  22.0566  22.0566

     occupation numbers 
     1.0000   0.0000   0.0000   0.0000   0.0000   0.0000

          k =-0.0505 0.0505 0.0505 (   316 PWs)   bands (ev):

    -3.0872  18.4153  20.0923  20.0923  22.7144  22.7220

     occupation numbers 
     1.0000   0.0000   0.0000   0.0000   0.0000   0.0000

          k =-0.1010 0.1010 0.1010 (   310 PWs)   bands (ev):

    -2.6713  15.5289  19.4619  19.4619  22.6245  23.8391

     occupation numbers 
     1.0000   0.0000   0.0000   0.0000   0.0000   0.0000

          k =-0.1516 0.1516 0.1516 (   311 PWs)   bands (ev):

    -1.9808  12.7150  18.9972  18.9972  22.3975  23.3306

     occupation numbers 
     1.0000   0.0000   0.0000   0.0000   0.0000   0.0000

          k =-0.2021 0.2021 0.2021 (   305 PWs)   bands (ev):

    -1.0197  10.0712  18.7473  18.7473  22.0645  22.0649

     occupation numbers 
     1.0000   0.0000   0.0000   0.0000   0.0000   0.0000

          k =-0.2526 0.2526 0.2526 (   308 PWs)   bands (ev):

     0.2065   7.6323  18.7239  18.7239  20.9474  20.9474

     occupation numbers 
     1.0000   1.0355   0.0000   0.0000   0.0000   0.0000

          k =-0.3031 0.3031 0.3031 (   314 PWs)   bands (ev):

     1.6909   5.4173  18.9314  18.9314  20.0453  20.0453

     occupation numbers 
     1.0000   1.0000   0.0000   0.0000   0.0000   0.0000

          k = 0.3537-0.3537-0.3537 (   302 PWs)   bands (ev):

     3.3223   3.5419  19.3567  19.3567  19.3874  19.3874

     occupation numbers 
     1.0000   1.0000   0.0000   0.0000   0.0000   0.0000

          k = 0.0000 0.0000 0.1010 (   315 PWs)   bands (ev):

    -3.0409  19.1309  19.1309  19.4212  21.6244  23.7384

     occupation numbers 
     1.0000   0.0000   0.0000   0.0000   0.0000   0.0000

          k =-0.0505 0.0505 0.1516 (   311 PWs)   bands (ev):

    -2.7174  16.5459  18.3443  19.5080  21.8980  23.5804

     occupation numbers 
     1.0000   0.0000   0.0000   0.0000   0.0000   0.0000

          k =-0.1010 0.1010 0.2021 (   315 PWs)   bands (ev):

    -2.1186  13.7265  17.7761  19.1981  21.7510  23.3579

     occupation numbers 
     1.0000   0.0000   0.0000   0.0000   0.0000   0.0000

          k =-0.1516 0.1516 0.2526 (   307 PWs)   bands (ev):

    -1.2480  11.0346  17.4365  18.9289  20.3527  23.7490

     occupation numbers 
     1.0000   0.0000   0.0000   0.0000   0.0000   0.0000

          k =-0.2021 0.2021 0.3031 (   304 PWs)   bands (ev):

    -0.1105   8.5317  17.3292  18.8392  19.1349  22.8679

     occupation numbers 
     1.0000   0.0001   0.0000   0.0000   0.0000   0.0000

          k =-0.2526 0.2526 0.3537 (   309 PWs)   bands (ev):

     1.2875   6.2443  17.4558  18.1054  19.0128  21.9079

     occupation numbers 
     1.0000   1.0000   0.0000   0.0000   0.0000   0.0000

          k = 0.4042-0.4042-0.3031 (   315 PWs)   bands (ev):

     2.9330   4.1931  17.3369  17.8174  19.3986  21.1652

     occupation numbers 
     1.0000   1.0000   0.0000   0.0000   0.0000   0.0000

          k = 0.3537-0.3537-0.2526 (   307 PWs)   bands (ev):

     2.3594   4.8477  16.8067  18.4141  20.0246  20.6503

     occupation numbers 
     1.0000   1.0000   0.0000   0.0000   0.0000   0.0000

          k = 0.3031-0.3031-0.2021 (   309 PWs)   bands (ev):

     0.7931   6.9807  16.5183  19.2416  20.3684  20.8831

     occupation numbers 
     1.0000   1.0002   0.0000   0.0000   0.0000   0.0000

          k = 0.2526-0.2526-0.1516 (   305 PWs)   bands (ev):

    -0.5189   9.3404  16.4728  20.1859  20.4256  21.9587

     occupation numbers 
     1.0000   0.0000   0.0000   0.0000   0.0000   0.0000

          k = 0.2021-0.2021-0.1010 (   308 PWs)   bands (ev):

    -1.5681  11.9050  16.6716  20.4360  21.5956  23.1163

     occupation numbers 
     1.0000   0.0000   0.0000   0.0000   0.0000   0.0000

          k = 0.1516-0.1516-0.0505 (   312 PWs)   bands (ev):

    -2.3486  14.6269  17.1253  20.7676  22.7344  23.3149

     occupation numbers 
     1.0000   0.0000   0.0000   0.0000   0.0000   0.0000

          k = 0.1010-0.1010 0.0000 (   315 PWs)   bands (ev):

    -2.8560  17.2018  18.0397  20.9055  22.2746  23.2052

     occupation numbers 
     1.0000   0.0000   0.0000   0.0000   0.0000   0.0000

          k = 0.0000 0.0000 0.2021 (   307 PWs)   bands (ev):

    -2.4868  17.4516  17.4516  17.6575  20.6238  21.6466

     occupation numbers 
     1.0000   0.0000   0.0000   0.0000   0.0000   0.0000

          k =-0.0505 0.0505 0.2526 (   308 PWs)   bands (ev):

    -1.9807  14.9001  16.7917  18.0278  19.8495  20.8564

     occupation numbers 
     1.0000   0.0000   0.0000   0.0000   0.0000   0.0000

          k =-0.1010 0.1010 0.3031 (   306 PWs)   bands (ev):

    -1.2023  12.2138  16.3665  17.8988  18.3238  22.2076

     occupation numbers 
     1.0000   0.0000   0.0000   0.0000   0.0000   0.0000

          k =-0.1516 0.1516 0.3537 (   307 PWs)   bands (ev):

    -0.1560   9.6691  16.1766  16.9020  17.8806  24.0012

     occupation numbers 
     1.0000   0.0000   0.0000   0.0000   0.0000   0.0000

          k =-0.2021 0.2021 0.4042 (   307 PWs)   bands (ev):

     1.1522   7.3213  15.8005  16.2222  17.9660  23.9919

     occupation numbers 
     1.0000   1.0274   0.0000   0.0000   0.0000   0.0000

          k = 0.4547-0.4547-0.2526 (   307 PWs)   bands (ev):

     2.7130   5.1968  14.9339  16.5040  18.2933  23.1896

     occupation numbers 
     1.0000   1.0000   0.0000   0.0000   0.0000   0.0000

          k = 0.4042-0.4042-0.2021 (   303 PWs)   bands (ev):

[...]

     occupation numbers 
     1.0000   1.0000   0.0000   0.0000   0.0000   0.0000

          k = 0.4044-0.4044 0.0000 (   303 PWs)   bands (ev):

     2.5909   8.0679   9.5835  16.4100  18.3035  26.2556

     occupation numbers 
     1.0000   0.1302   0.0000   0.0000   0.0000   0.0000

          k = 0.0000 0.0000 0.5055 (   314 PWs)   bands (ev):

     1.3366  11.2890  13.9289  14.1829  14.1829  17.6984

     occupation numbers 
     1.0000   0.0000   0.0000   0.0000   0.0000   0.0000

          k =-0.0505 0.0505 0.5560 (   316 PWs)   bands (ev):

     2.3583   9.8763  11.8916  13.9873  15.0271  18.2398

     occupation numbers 
     1.0000   0.0000   0.0000   0.0000   0.0000   0.0000

          k = 0.6066-0.6066-0.1011 (   312 PWs)   bands (ev):

     3.6247   8.7076   9.7225  14.0285  15.4539  20.0528

     occupation numbers 
     1.0000   0.0000   0.0000   0.0000   0.0000   0.0000

          k = 0.5560-0.5560-0.0505 (   305 PWs)   bands (ev):

     5.0862   7.4944   8.0588  14.3066  15.8870  22.3962

     occupation numbers 
     1.0000   1.0771   0.1420   0.0000   0.0000   0.0000

          k = 0.5055-0.5055 0.0000 (   304 PWs)   bands (ev):

     5.7334   6.3649   7.8387  14.8222  16.5165  24.9563

     occupation numbers 
     1.0000   1.0000   0.6380   0.0000   0.0000   0.0000

          k = 0.0000 0.0000 0.6066 (   314 PWs)   bands (ev):

     3.2724   8.3923  13.3802  13.7118  13.7118  17.1995

     occupation numbers 
     1.0000   0.0015   0.0000   0.0000   0.0000   0.0000

          k = 0.6571-0.6571-0.0505 (   308 PWs)   bands (ev):

     4.3944   7.2035  11.5463  13.6732  14.6790  17.9144

     occupation numbers 
     1.0000   1.0060   0.0000   0.0000   0.0000   0.0000

          k = 0.6066-0.6066 0.0000 (   310 PWs)   bands (ev):

     5.3456   6.6902   9.5273  13.8713  15.2766  19.8966

     occupation numbers 
     1.0000   1.0000   0.0000   0.0000   0.0000   0.0000

          k = 0.0000 0.0000-0.7076 (   302 PWs)   bands (ev):

     5.0064   6.3375  13.1969  13.5549  13.5549  17.0298

     occupation numbers 
     1.0000   1.0000   0.0000   0.0000   0.0000   0.0000

          k = 0.0000 0.1011 0.2022 (   311 PWs)   bands (ev):

    -2.2970  15.3928  16.4630  20.0046  21.5057  22.0828

     occupation numbers 
     1.0000   0.0000   0.0000   0.0000   0.0000   0.0000

          k =-0.0505 0.1516 0.2527 (   310 PWs)   bands (ev):

    -1.6077  12.9739  15.6115  20.0996  20.1477  22.8617

     occupation numbers 
     1.0000   0.0000   0.0000   0.0000   0.0000   0.0000

          k =-0.1011 0.2022 0.3033 (   306 PWs)   bands (ev):

    -0.6483  10.3948  15.2869  18.7269  20.0083  23.4429

     occupation numbers 
     1.0000   0.0000   0.0000   0.0000   0.0000   0.0000

          k =-0.1516 0.2527 0.3538 (   309 PWs)   bands (ev):

     0.5756   7.9786  15.2354  17.5537  20.0295  22.3650

     occupation numbers 
     1.0000   0.2803   0.0000   0.0000   0.0000   0.0000

          k = 0.5055-0.4044-0.3033 (   308 PWs)   bands (ev):

     2.0568   5.7746  15.4310  16.6219  20.2591  21.4553

     occupation numbers 
     1.0000   1.0000   0.0000   0.0000   0.0000   0.0000

          k = 0.4549-0.3538-0.2527 (   308 PWs)   bands (ev):

     3.6739   3.9155  15.7542  16.0531  20.6045  20.8794

     occupation numbers 
     1.0000   1.0000   0.0000   0.0000   0.0000   0.0000

          k = 0.0000 0.1011 0.3033 (   307 PWs)   bands (ev):

    -1.3787  13.8721  15.0482  18.1610  18.6111  20.7473

     occupation numbers 
     1.0000   0.0000   0.0000   0.0000   0.0000   0.0000

          k =-0.0505 0.1516 0.3538 (   308 PWs)   bands (ev):

    -0.5120  11.6168  14.3139  16.6538  18.9411  21.8560

     occupation numbers 
     1.0000   0.0000   0.0000   0.0000   0.0000   0.0000

          k =-0.1011 0.2022 0.4044 (   311 PWs)   bands (ev):

     0.6202   9.1938  14.1254  15.3873  19.0103  23.6258

     occupation numbers 
     1.0000   0.0000   0.0000   0.0000   0.0000   0.0000

          k = 0.5560-0.4549-0.2527 (   309 PWs)   bands (ev):

     2.0109   6.9376  14.0848  14.4983  19.2075  23.5572

     occupation numbers 
     1.0000   1.0001   0.0000   0.0000   0.0000   0.0000

          k = 0.5055-0.4044-0.2022 (   308 PWs)   bands (ev):

     3.6440   4.9056  13.4813  14.6783  19.6159  22.8261

     occupation numbers 
     1.0000   1.0000   0.0000   0.0000   0.0000   0.0000

          k = 0.4549-0.3538-0.1516 (   307 PWs)   bands (ev):

     3.0773   5.5482  12.9620  15.2804  20.2504  22.2962

     occupation numbers 
     1.0000   1.0000   0.0000   0.0000   0.0000   0.0000

          k = 0.4044-0.3033-0.1011 (   311 PWs)   bands (ev):

     1.5198   7.6490  12.6983  16.1403  21.0941  21.9917

     occupation numbers 
     1.0000   1.0328   0.0000   0.0000   0.0000   0.0000

          k = 0.3538-0.2527-0.0505 (   310 PWs)   bands (ev):

     0.2140   9.9205  12.7413  17.2433  21.7297  22.2415

     occupation numbers 
     1.0000   0.0000   0.0000   0.0000   0.0000   0.0000

          k = 0.3033-0.2022-0.0000 (   310 PWs)   bands (ev):

    -0.8306  11.9949  13.4344  18.5774  21.3923  22.7881

     occupation numbers 
     1.0000   0.0000   0.0000   0.0000   0.0000   0.0000

          k =-0.0000 0.1011 0.4044 (   310 PWs)   bands (ev):

    -0.1036  12.6808  13.8729  14.7512  17.4601  19.7613

     occupation numbers 
     1.0000   0.0000   0.0000   0.0000   0.0000   0.0000

          k =-0.0505 0.1516 0.4549 (   313 PWs)   bands (ev):

     0.9346  10.5889  13.0911  13.5724  17.9709  21.0116

     occupation numbers 
     1.0000   0.0000   0.0000   0.0000   0.0000   0.0000

          k = 0.6066-0.5055-0.2022 (   309 PWs)   bands (ev):

     2.2311   8.3287  12.1312  13.3842  18.2160  23.0180

     occupation numbers 
     1.0000   0.0044   0.0000   0.0000   0.0000   0.0000

          k = 0.5560-0.4549-0.1516 (   308 PWs)   bands (ev):

     3.7733   6.2418  11.2714  13.6387  18.5850  24.8784

     occupation numbers 
     1.0000   1.0000   0.0000   0.0000   0.0000   0.0000

          k = 0.5055-0.4044-0.1011 (   304 PWs)   bands (ev):

     4.3459   5.5750  10.6671  14.1673  19.1648  24.5214

     occupation numbers 
     1.0000   1.0000   0.0000   0.0000   0.0000   0.0000

          k = 0.4549-0.3538-0.0505 (   305 PWs)   bands (ev):

     2.7235   7.5176  10.3789  14.9502  19.9695  24.0967

     occupation numbers 
     1.0000   1.0816   0.0000   0.0000   0.0000   0.0000

          k = 0.4044-0.3033 0.0000 (   306 PWs)   bands (ev):

     1.3403   9.2624  10.7838  15.9787  20.9864  23.4541

     occupation numbers 
     1.0000   0.0000   0.0000   0.0000   0.0000   0.0000

          k = 0.0000 0.1011 0.5055 (   316 PWs)   bands (ev):

     1.5159  11.4354  11.8266  13.1675  16.6249  19.0033

     occupation numbers 
     1.0000   0.0000   0.0000   0.0000   0.0000   0.0000

          k = 0.6571-0.5560-0.1516 (   309 PWs)   bands (ev):

     2.7139   9.8385  10.2969  12.7191  17.3068  20.4155

     occupation numbers 
     1.0000   0.0000   0.0000   0.0000   0.0000   0.0000

          k = 0.6066-0.5055-0.1011 (   306 PWs)   bands (ev):

     4.1510   7.7920   9.3023  12.8602  17.7234  22.5993

     occupation numbers 
     1.0000   0.7637   0.0000   0.0000   0.0000   0.0000

          k = 0.5560-0.4549-0.0505 (   302 PWs)   bands (ev):

     5.6993   5.9605   8.6514  13.2995  18.2624  25.0260

     occupation numbers 
     1.0000   1.0000   0.0000   0.0000   0.0000   0.0000

          k = 0.5055-0.4044 0.0000 (   302 PWs)   bands (ev):

     4.1771   7.2159   8.7059  14.0001  19.0086  26.1499

     occupation numbers 
     1.0000   1.0071   0.0000   0.0000   0.0000   0.0000

          k = 0.7076-0.6066-0.1011 (   314 PWs)   bands (ev):

     3.4487   8.5613  11.3130  12.6582  16.1211  18.5297

     occupation numbers 
     1.0000   0.0000   0.0000   0.0000   0.0000   0.0000

          k = 0.6571-0.5560-0.0505 (   310 PWs)   bands (ev):

     4.7413   7.5451   9.5898  12.3769  16.9714  20.1089

     occupation numbers 
     1.0000   1.0833   0.0000   0.0000   0.0000   0.0000

          k = 0.6066-0.5055 0.0000 (   306 PWs)   bands (ev):

     5.8550   7.1227   7.7784  12.6904  17.5573  22.4552

     occupation numbers 
     1.0000   1.0018   0.7980   0.0000   0.0000   0.0000

          k = 0.0000 0.1011-0.7076 (   308 PWs)   bands (ev):

     5.1760   6.5162  11.1416  12.4912  15.9530  18.3690

     occupation numbers 
     1.0000   1.0000   0.0000   0.0000   0.0000   0.0000

          k = 0.0000 0.2022 0.4044 (   313 PWs)   bands (ev):

     0.4396  10.8001  12.2632  15.2194  20.3295  22.0799

     occupation numbers 
     1.0000   0.0000   0.0000   0.0000   0.0000   0.0000

          k = 0.6571-0.4549-0.2527 (   307 PWs)   bands (ev):

     1.6530   8.8903  11.7141  14.0201  20.9139  23.1366

     occupation numbers 
     1.0000   0.0000   0.0000   0.0000   0.0000   0.0000

          k = 0.6066-0.4044-0.2022 (   307 PWs)   bands (ev):

     3.1195   6.7822  11.8129  13.0845  21.2485  22.5155

     occupation numbers 
     1.0000   1.0000   0.0000   0.0000   0.0000   0.0000

          k = 0.5560-0.3538-0.1516 (   308 PWs)   bands (ev):

     4.6997   4.9762  12.0432  12.5856  21.5665  22.0069

     occupation numbers 
     1.0000   1.0000   0.0000   0.0000   0.0000   0.0000

          k = 0.7076-0.5055-0.2022 (   311 PWs)   bands (ev):

     2.0526   9.9461  11.2932  12.1658  19.5177  21.4197

     occupation numbers 
     1.0000   0.0000   0.0000   0.0000   0.0000   0.0000

          k = 0.6571-0.4549-0.1516 (   308 PWs)   bands (ev):

     3.4221   8.1979  10.6934  11.3414  20.2897  23.0423

     occupation numbers 
     1.0000   0.0299   0.0000   0.0000   0.0000   0.0000

          k = 0.6066-0.4044-0.1011 (   304 PWs)   bands (ev):

     5.0174   6.2657  10.1017  11.4443  20.8144  24.1085

     occupation numbers 
     1.0000   1.0000   0.0000   0.0000   0.0000   0.0000

          k = 0.5560-0.3538-0.0505 (   305 PWs)   bands (ev):

     4.4758   6.8288   9.6665  12.0224  21.4677  23.5814

     occupation numbers 
     1.0000   1.0000   0.0000   0.0000   0.0000   0.0000

          k = 0.5055-0.3033 0.0000 (   309 PWs)   bands (ev):

     2.9426   8.4092   9.9041  12.8918  22.2818  22.7151

     occupation numbers 
     1.0000   0.0011   0.0000   0.0000   0.0000   0.0000

          k = 0.7076-0.5055-0.1011 (   303 PWs)   bands (ev):

     3.9761   9.0465   9.4336  11.0248  19.0216  20.9916

     occupation numbers 
     1.0000   0.0000   0.0000   0.0000   0.0000   0.0000

          k = 0.6571-0.4549-0.0505 (   306 PWs)   bands (ev):

     5.4322   7.7861   8.3281  10.7869  19.9683  22.8015

     occupation numbers 
     1.0000   0.7787   0.0044   0.0000   0.0000   0.0000

          k = 0.6066-0.4044 0.0000 (   303 PWs)   bands (ev):

     6.0556   6.7052   8.1668  11.2406  20.6612  25.0914

     occupation numbers 
     1.0000   1.0000   0.0442   0.0000   0.0000   0.0000

          k =-0.0000 0.2022-0.7076 (   304 PWs)   bands (ev):

     5.6852   7.0426   9.2627  10.8294  18.8552  20.8449

     occupation numbers 
     1.0000   1.0005   0.0000   0.0000   0.0000   0.0000

          k = 0.7076-0.4044-0.1011 (   307 PWs)   bands (ev):

     4.8502   7.8976   9.2318  10.1937  22.2388  23.4282

     occupation numbers 
     1.0000   0.4764   0.0000   0.0000   0.0000   0.0000

          k = 0.6571-0.3538-0.0505 (   306 PWs)   bands (ev):

     6.3665   6.5731   8.9980   9.7389  23.0571  23.4249

     occupation numbers 
     1.0000   1.0000   0.0000   0.0000   0.0000   0.0000

          k = 0.0000 0.3033-0.7076 (   308 PWs)   bands (ev):

     6.5350   7.7271   7.8414   9.4073  22.0773  23.5329

     occupation numbers 
     1.0000   0.9136   0.6306   0.0000   0.0000   0.0000

     the Fermi energy is     7.9267 ev

!    total energy              =     -39.50214715 Ry

     total all-electron energy =      -485.644929 Ry
     estimated scf accuracy    <          1.6E-12 Ry
     smearing contrib. (-TS)   =      -0.00009177 Ry
     internal energy E=F+TS    =     -39.50205538 Ry

     The total energy is F=E-TS. E is the sum of the following terms:
     one-electron contribution =       3.17277370 Ry
     hartree contribution      =       0.00582364 Ry
     xc contribution           =      -2.59222671 Ry
     ewald contribution        =      -5.40906092 Ry
     one-center paw contrib.   =     -34.67936509 Ry
      -> PAW hartree energy AE =       1.37183466 Ry
      -> PAW hartree energy PS =      -1.36717520 Ry
      -> PAW xc energy AE      =     -36.57211103 Ry
      -> PAW xc energy PS      =       1.88808647 Ry
      -> total E_H with PAW    =       0.01048310 Ry
      -> total E_XC with PAW   =     -37.27625126 Ry

     convergence has been achieved in   8 iterations

     Forces acting on atoms (cartesian axes, Ry/au):

     atom    1 type  1   force =     0.00000000    0.00000000    0.00000000
     The non-local contrib.  to forces
     atom    1 type  1   force =     0.00000000    0.00000000    0.00000000
     The ionic contribution  to forces
     atom    1 type  1   force =    -0.00000000   -0.00000000   -0.00000000
     The local contribution  to forces
     atom    1 type  1   force =     0.00000000   -0.00000000   -0.00000000
     The core correction contribution to forces
     atom    1 type  1   force =     0.00000000   -0.00000000   -0.00000000
     The Hubbard contrib.    to forces
     atom    1 type  1   force =     0.00000000    0.00000000    0.00000000
     The SCF correction term to forces
     atom    1 type  1   force =     0.00000000    0.00000000   -0.00000000

     Total force =     0.000000     Total SCF correction =     0.000000


     Computing stress (Cartesian axis) and pressure

          total   stress  (Ry/bohr**3)                   (kbar)     P=       -0.04
  -0.00000030   0.00000000   0.00000000           -0.04        0.00        0.00
   0.00000000  -0.00000030   0.00000000            0.00       -0.04        0.00
   0.00000000  -0.00000000  -0.00000030            0.00       -0.00       -0.04

     kinetic stress (kbar)   1471.23     -0.00     -0.00
                               -0.00   1471.23     -0.00
                               -0.00     -0.00   1471.23

     local   stress (kbar)    647.08     -0.00      0.00
                               -0.00    647.08      0.00
                                0.00      0.00    647.08

     nonloc. stress (kbar)   1054.40     -0.00      0.00
                               -0.00   1054.40     -0.00
                               -0.00     -0.00   1054.40

     hartree stress (kbar)      2.57      0.00      0.00
                                0.00      2.57     -0.00
                                0.00     -0.00      2.57

     exc-cor stress (kbar)    505.75     -0.00     -0.00
                               -0.00    505.75      0.00
                               -0.00      0.00    505.75

     corecor stress (kbar)  -1291.35     -0.00     -0.00
                               -0.00  -1291.35     -0.00
                               -0.00     -0.00  -1291.35

     ewald   stress (kbar)  -2389.72      0.00      0.00
                                0.00  -2389.72     -0.00
                                0.00     -0.00  -2389.72

     hubbard stress (kbar)      0.00      0.00      0.00
                                0.00      0.00      0.00
                                0.00      0.00      0.00

     DFT-D   stress (kbar)      0.00      0.00      0.00
                                0.00      0.00      0.00
                                0.00      0.00      0.00

     XDM     stress (kbar)      0.00      0.00      0.00
                                0.00      0.00      0.00
                                0.00      0.00      0.00

     dft-nl  stress (kbar)      0.00      0.00      0.00
                                0.00      0.00      0.00
                                0.00      0.00      0.00

     TS-vdW  stress (kbar)      0.00      0.00      0.00
                                0.00      0.00      0.00
                                0.00      0.00      0.00


                                0.00      0.00      0.00
                                0.00      0.00      0.00


                                0.00      0.00      0.00


     Writing output data file ./al.save/

     init_run     :      2.16s CPU      2.17s WALL (       2 calls)
     electrons    :     10.71s CPU     10.92s WALL (       4 calls)
     update_pot   :      0.73s CPU      0.73s WALL (       2 calls)
     forces       :      0.77s CPU      0.77s WALL (       4 calls)
     stress       :      2.20s CPU      2.21s WALL (       4 calls)

     Called by init_run:
     wfcinit      :      0.21s CPU      0.21s WALL (       2 calls)
     wfcinit:atom :      0.01s CPU      0.01s WALL (     208 calls)
     wfcinit:wfcr :      0.17s CPU      0.17s WALL (     208 calls)
     potinit      :      0.48s CPU      0.48s WALL (       2 calls)
     hinit0       :      1.41s CPU      1.41s WALL (       2 calls)

     Called by electrons:
     c_bands      :      6.61s CPU      6.78s WALL (      25 calls)
     sum_band     :      1.23s CPU      1.26s WALL (      25 calls)
     v_of_rho     :      0.22s CPU      0.22s WALL (      26 calls)
     v_h          :      0.01s CPU      0.01s WALL (      26 calls)
     v_xc         :      0.27s CPU      0.27s WALL (      34 calls)
     newd         :      0.28s CPU      0.29s WALL (      26 calls)
     PAW_pot      :      3.11s CPU      3.11s WALL (      28 calls)
     mix_rho      :      0.02s CPU      0.02s WALL (      25 calls)

     Called by c_bands:
     init_us_2    :      0.44s CPU      0.45s WALL (    6448 calls)
     cegterg      :      6.03s CPU      6.18s WALL (    2600 calls)

     Called by sum_band:
     sum_band:wei :      0.01s CPU      0.01s WALL (      25 calls)
     sum_band:loo :      0.93s CPU      0.94s WALL (      25 calls)
     sum_band:buf :      0.01s CPU      0.01s WALL (    2600 calls)
     sum_band:ini :      0.18s CPU      0.18s WALL (    2600 calls)
     sum_band:cal :      0.16s CPU      0.16s WALL (    2808 calls)
     sum_band:bec :      0.01s CPU      0.01s WALL (    2808 calls)
     addusdens    :      0.25s CPU      0.27s WALL (      25 calls)
     addusd:skk   :      0.00s CPU      0.00s WALL (      25 calls)
     addusd:dgemm :      0.05s CPU      0.06s WALL (      25 calls)
     addusd:qvan2 :      0.15s CPU      0.15s WALL (      25 calls)

     Called by *egterg:
     cdiaghg      :      0.33s CPU      0.34s WALL (    8948 calls)
     cegterg:over :      0.34s CPU      0.35s WALL (    6868 calls)
     cegterg:upda :      0.22s CPU      0.22s WALL (    6868 calls)
     cegterg:last :      0.47s CPU      0.48s WALL (    5533 calls)
     h_psi        :      4.09s CPU      4.19s WALL (    9676 calls)
     s_psi        :      0.50s CPU      0.51s WALL (    9676 calls)
     g_psi        :      0.03s CPU      0.03s WALL (    6868 calls)

     Called by h_psi:
     h_psi:calbec :      0.43s CPU      0.45s WALL (    9676 calls)
     vloc_psi     :      3.12s CPU      3.19s WALL (    9676 calls)
     add_vuspsi   :      0.50s CPU      0.51s WALL (    9676 calls)

     General routines
     calbec       :      0.70s CPU      0.71s WALL (   14564 calls)
     fft          :      0.18s CPU      0.18s WALL (     435 calls)
     ffts         :      0.00s CPU      0.00s WALL (      51 calls)
     fftw         :      2.97s CPU      3.04s WALL (  104062 calls)
     interpolate  :      0.01s CPU      0.01s WALL (      26 calls)

     Parallel routines

     PAW routines
     PAW_pot      :      3.11s CPU      3.11s WALL (      28 calls)
     PAW_symme    :      0.01s CPU      0.01s WALL (      53 calls)

     PWSCF        :     16.99s CPU     17.23s WALL


   This run was terminated on:  18:16:33  12May2023            

=------------------------------------------------------------------------------=
   JOB DONE.
=------------------------------------------------------------------------------=
