
     Program PWSCF v.6.8 starts on 11May2023 at 16:56:15 

     This program is part of the open-source Quantum ESPRESSO suite
     for quantum simulation of materials; please cite
         "P. Giannozzi et al., J. Phys.:Condens. Matter 21 395502 (2009);
         "P. Giannozzi et al., J. Phys.:Condens. Matter 29 465901 (2017);
         "P. Giannozzi et al., J. Chem. Phys. 152 154105 (2020);
          URL http://www.quantum-espresso.org", 
     in publications or presentations arising from this work. More details at
     http://www.quantum-espresso.org/quote

     Parallel version (MPI), running on     1 processors

     MPI processes distributed on     1 nodes
     2750 MiB available memory on the printing compute node when the environment starts

     Reading input from ecut_15.in

     Current dimensions of program PWSCF are:
     Max number of different atomic species (ntypx) = 10
     Max number of k-points (npk) =  40000
     Max angular momentum in pseudopotentials (lmaxx) =  4
     Message from routine volume:
     axis vectors are left-handed
     Message from routine setup:
     using ibrav=0 with symmetry is DISCOURAGED, use correct ibrav instead

     Subspace diagonalization in iterative solution of the eigenvalue problem:
     a serial algorithm will be used


     G-vector sticks info
     --------------------
     sticks:   dense  smooth     PW     G-vecs:    dense   smooth      PW
     Sum         433     211     85                 5817     2085     459

     Using Slab Decomposition



     bravais-lattice index     =            0
     lattice parameter (alat)  =       7.1903  a.u.
     unit-cell volume          =     262.8607 (a.u.)^3
     number of atoms/cell      =            2
     number of atomic types    =            1
     number of electrons       =         8.00
     number of Kohn-Sham states=            4
     kinetic-energy cutoff     =      15.0000  Ry
     charge density cutoff     =     120.0000  Ry
     scf convergence threshold =      4.0E-10
     mixing beta               =       0.4000
     number of iterations used =            8  plain     mixing
     Exchange-correlation= PBE
                           (   1   4   3   4   0   0   0)

     celldm(1)=   7.190298  celldm(2)=   0.000000  celldm(3)=   0.000000
     celldm(4)=   0.000000  celldm(5)=   0.000000  celldm(6)=   0.000000

     crystal axes: (cart. coord. in units of alat)
               a(1) = (   0.707107   0.707107   0.000000 )  
               a(2) = (   0.707107   0.000000   0.707107 )  
               a(3) = (   0.000000   0.707107   0.707107 )  

     reciprocal axes: (cart. coord. in units 2 pi/alat)
               b(1) = (  0.707107  0.707107 -0.707107 )  
               b(2) = (  0.707107 -0.707107  0.707107 )  
               b(3) = ( -0.707107  0.707107  0.707107 )  


     PseudoPot. # 1 for Si read from file:
     ./pseudo/Si.pbe-n-rrkjus_psl.1.0.0.UPF
     MD5 check sum: 0b0bb1205258b0d07b9f9672cf965d36
     Pseudo is Ultrasoft + core correction, Zval =  4.0
     Generated using "atomic" code by A. Dal Corso  v.5.1
     Using radial grid of 1141 points,  6 beta functions with: 
                l(1) =   0
                l(2) =   0
                l(3) =   1
                l(4) =   1
                l(5) =   2
                l(6) =   2
     Q(r) pseudized with 0 coefficients 


     atomic species   valence    mass     pseudopotential
        Si             4.00    28.08550     Si( 1.00)

     48 Sym. Ops., with inversion, found (24 have fractional translation)


                                    s                        frac. trans.

      isym =  1     identity                                     

 cryst.   s( 1) = (     1          0          0      )
                  (     0          1          0      )
                  (     0          0          1      )

 cart.    s( 1) = (  1.0000000  0.0000000  0.0000000 )
                  (  0.0000000  1.0000000  0.0000000 )
                  (  0.0000000  0.0000000  1.0000000 )


      isym =  2     180 deg rotation - cart. axis [0,0,1]        

 cryst.   s( 2) = (    -1          0          0      )
                  (    -1          0          1      )
                  (    -1          1          0      )

 cart.    s( 2) = ( -1.0000000  0.0000000  0.0000000 )
                  (  0.0000000 -1.0000000  0.0000000 )
                  (  0.0000000  0.0000000  1.0000000 )


      isym =  3     180 deg rotation - cart. axis [0,1,0]        

 cryst.   s( 3) = (     0         -1          1      )
                  (     0         -1          0      )
                  (     1         -1          0      )

 cart.    s( 3) = ( -1.0000000  0.0000000  0.0000000 )
                  (  0.0000000  1.0000000  0.0000000 )
                  (  0.0000000  0.0000000 -1.0000000 )


      isym =  4     180 deg rotation - cart. axis [1,0,0]        

 cryst.   s( 4) = (     0          1         -1      )
                  (     1          0         -1      )
                  (     0          0         -1      )

 cart.    s( 4) = (  1.0000000  0.0000000  0.0000000 )
                  (  0.0000000 -1.0000000  0.0000000 )
                  (  0.0000000  0.0000000 -1.0000000 )


      isym =  5     180 deg rotation - cart. axis [1,1,0]        

 cryst.   s( 5) = (     1          0          0      )    f =( -0.2500000 )
                  (     1         -1          0      )       ( -0.2500000 )
                  (     1          0         -1      )       ( -0.2500000 )

 cart.    s( 5) = (  0.0000000  1.0000000  0.0000000 )    f =( -0.3535534 )
                  (  1.0000000  0.0000000  0.0000000 )       ( -0.3535534 )
                  (  0.0000000  0.0000000 -1.0000000 )       ( -0.3535534 )


      isym =  6     180 deg rotation - cart. axis [1,-1,0]       

 cryst.   s( 6) = (    -1          0          0      )    f =( -0.2500000 )
                  (     0          0         -1      )       ( -0.2500000 )
                  (     0         -1          0      )       ( -0.2500000 )

 cart.    s( 6) = (  0.0000000 -1.0000000  0.0000000 )    f =( -0.3535534 )
                  ( -1.0000000  0.0000000  0.0000000 )       ( -0.3535534 )
                  (  0.0000000  0.0000000 -1.0000000 )       ( -0.3535534 )


      isym =  7      90 deg rotation - cart. axis [0,0,-1]       

 cryst.   s( 7) = (     0          1         -1      )    f =( -0.2500000 )
                  (    -1          1          0      )       ( -0.2500000 )
                  (     0          1          0      )       ( -0.2500000 )

 cart.    s( 7) = (  0.0000000  1.0000000  0.0000000 )    f =( -0.3535534 )
                  ( -1.0000000  0.0000000  0.0000000 )       ( -0.3535534 )
                  (  0.0000000  0.0000000  1.0000000 )       ( -0.3535534 )


      isym =  8      90 deg rotation - cart. axis [0,0,1]        

 cryst.   s( 8) = (     0         -1          1      )    f =( -0.2500000 )
                  (     0          0          1      )       ( -0.2500000 )
                  (    -1          0          1      )       ( -0.2500000 )

 cart.    s( 8) = (  0.0000000 -1.0000000  0.0000000 )    f =( -0.3535534 )
                  (  1.0000000  0.0000000  0.0000000 )       ( -0.3535534 )
                  (  0.0000000  0.0000000  1.0000000 )       ( -0.3535534 )


      isym =  9     180 deg rotation - cart. axis [1,0,1]        

 cryst.   s( 9) = (    -1          1          0      )    f =( -0.2500000 )
                  (     0          1          0      )       ( -0.2500000 )
                  (     0          1         -1      )       ( -0.2500000 )

 cart.    s( 9) = (  0.0000000  0.0000000  1.0000000 )    f =( -0.3535534 )
                  (  0.0000000 -1.0000000  0.0000000 )       ( -0.3535534 )
                  (  1.0000000  0.0000000  0.0000000 )       ( -0.3535534 )


      isym = 10     180 deg rotation - cart. axis [-1,0,1]       

 cryst.   s(10) = (     0          0         -1      )    f =( -0.2500000 )
                  (     0         -1          0      )       ( -0.2500000 )
                  (    -1          0          0      )       ( -0.2500000 )

 cart.    s(10) = (  0.0000000  0.0000000 -1.0000000 )    f =( -0.3535534 )
                  (  0.0000000 -1.0000000  0.0000000 )       ( -0.3535534 )
                  ( -1.0000000  0.0000000  0.0000000 )       ( -0.3535534 )


      isym = 11      90 deg rotation - cart. axis [0,1,0]        

 cryst.   s(11) = (     1         -1          0      )    f =( -0.2500000 )
                  (     1          0         -1      )       ( -0.2500000 )
                  (     1          0          0      )       ( -0.2500000 )

 cart.    s(11) = (  0.0000000  0.0000000  1.0000000 )    f =( -0.3535534 )
                  (  0.0000000  1.0000000  0.0000000 )       ( -0.3535534 )
                  ( -1.0000000  0.0000000  0.0000000 )       ( -0.3535534 )


      isym = 12      90 deg rotation - cart. axis [0,-1,0]       

 cryst.   s(12) = (     0          0          1      )    f =( -0.2500000 )
                  (    -1          0          1      )       ( -0.2500000 )
                  (     0         -1          1      )       ( -0.2500000 )

 cart.    s(12) = (  0.0000000  0.0000000 -1.0000000 )    f =( -0.3535534 )
                  (  0.0000000  1.0000000  0.0000000 )       ( -0.3535534 )
                  (  1.0000000  0.0000000  0.0000000 )       ( -0.3535534 )


      isym = 13     180 deg rotation - cart. axis [0,1,1]        

 cryst.   s(13) = (    -1          0          1      )    f =( -0.2500000 )
                  (     0         -1          1      )       ( -0.2500000 )
                  (     0          0          1      )       ( -0.2500000 )

 cart.    s(13) = ( -1.0000000  0.0000000  0.0000000 )    f =( -0.3535534 )
                  (  0.0000000  0.0000000  1.0000000 )       ( -0.3535534 )
                  (  0.0000000  1.0000000  0.0000000 )       ( -0.3535534 )


      isym = 14     180 deg rotation - cart. axis [0,1,-1]       

 cryst.   s(14) = (     0         -1          0      )    f =( -0.2500000 )
                  (    -1          0          0      )       ( -0.2500000 )
                  (     0          0         -1      )       ( -0.2500000 )

 cart.    s(14) = ( -1.0000000  0.0000000  0.0000000 )    f =( -0.3535534 )
                  (  0.0000000  0.0000000 -1.0000000 )       ( -0.3535534 )
                  (  0.0000000 -1.0000000  0.0000000 )       ( -0.3535534 )


      isym = 15      90 deg rotation - cart. axis [-1,0,0]       

 cryst.   s(15) = (     1          0         -1      )    f =( -0.2500000 )
                  (     1          0          0      )       ( -0.2500000 )
                  (     1         -1          0      )       ( -0.2500000 )

 cart.    s(15) = (  1.0000000  0.0000000  0.0000000 )    f =( -0.3535534 )
                  (  0.0000000  0.0000000  1.0000000 )       ( -0.3535534 )
                  (  0.0000000 -1.0000000  0.0000000 )       ( -0.3535534 )


      isym = 16      90 deg rotation - cart. axis [1,0,0]        

 cryst.   s(16) = (     0          1          0      )    f =( -0.2500000 )
                  (     0          1         -1      )       ( -0.2500000 )
                  (    -1          1          0      )       ( -0.2500000 )

 cart.    s(16) = (  1.0000000  0.0000000  0.0000000 )    f =( -0.3535534 )
                  (  0.0000000  0.0000000 -1.0000000 )       ( -0.3535534 )
                  (  0.0000000  1.0000000  0.0000000 )       ( -0.3535534 )


      isym = 17     120 deg rotation - cart. axis [-1,-1,-1]     

 cryst.   s(17) = (     0          1          0      )
                  (     0          0          1      )
                  (     1          0          0      )

 cart.    s(17) = (  0.0000000  1.0000000  0.0000000 )
                  (  0.0000000  0.0000000  1.0000000 )
                  (  1.0000000  0.0000000  0.0000000 )


      isym = 18     120 deg rotation - cart. axis [-1,1,1]       

 cryst.   s(18) = (     0         -1          0      )
                  (     1         -1          0      )
                  (     0         -1          1      )

 cart.    s(18) = (  0.0000000 -1.0000000  0.0000000 )
                  (  0.0000000  0.0000000  1.0000000 )
                  ( -1.0000000  0.0000000  0.0000000 )


      isym = 19     120 deg rotation - cart. axis [1,1,-1]       

 cryst.   s(19) = (     1          0         -1      )
                  (     0          0         -1      )
                  (     0          1         -1      )

 cart.    s(19) = (  0.0000000  1.0000000  0.0000000 )
                  (  0.0000000  0.0000000 -1.0000000 )
                  ( -1.0000000  0.0000000  0.0000000 )


      isym = 20     120 deg rotation - cart. axis [1,-1,1]       

 cryst.   s(20) = (    -1          0          1      )
                  (    -1          1          0      )
                  (    -1          0          0      )

 cart.    s(20) = (  0.0000000 -1.0000000  0.0000000 )
                  (  0.0000000  0.0000000 -1.0000000 )
                  (  1.0000000  0.0000000  0.0000000 )


      isym = 21     120 deg rotation - cart. axis [1,1,1]        

 cryst.   s(21) = (     0          0          1      )
                  (     1          0          0      )
                  (     0          1          0      )

 cart.    s(21) = (  0.0000000  0.0000000  1.0000000 )
                  (  1.0000000  0.0000000  0.0000000 )
                  (  0.0000000  1.0000000  0.0000000 )


      isym = 22     120 deg rotation - cart. axis [-1,1,-1]      

 cryst.   s(22) = (     0          0         -1      )
                  (     0          1         -1      )
                  (     1          0         -1      )

 cart.    s(22) = (  0.0000000  0.0000000  1.0000000 )
                  ( -1.0000000  0.0000000  0.0000000 )
                  (  0.0000000 -1.0000000  0.0000000 )


      isym = 23     120 deg rotation - cart. axis [1,-1,-1]      

 cryst.   s(23) = (    -1          1          0      )
                  (    -1          0          0      )
                  (    -1          0          1      )

 cart.    s(23) = (  0.0000000  0.0000000 -1.0000000 )
                  ( -1.0000000  0.0000000  0.0000000 )
                  (  0.0000000  1.0000000  0.0000000 )


      isym = 24     120 deg rotation - cart. axis [-1,-1,1]      

 cryst.   s(24) = (     1         -1          0      )
                  (     0         -1          1      )
                  (     0         -1          0      )

 cart.    s(24) = (  0.0000000  0.0000000 -1.0000000 )
                  (  1.0000000  0.0000000  0.0000000 )
                  (  0.0000000 -1.0000000  0.0000000 )


      isym = 25     inversion                                    

 cryst.   s(25) = (    -1          0          0      )    f =( -0.2500000 )
                  (     0         -1          0      )       ( -0.2500000 )
                  (     0          0         -1      )       ( -0.2500000 )

 cart.    s(25) = ( -1.0000000  0.0000000  0.0000000 )    f =( -0.3535534 )
                  (  0.0000000 -1.0000000  0.0000000 )       ( -0.3535534 )
                  (  0.0000000  0.0000000 -1.0000000 )       ( -0.3535534 )


      isym = 26     inv. 180 deg rotation - cart. axis [0,0,1]   

 cryst.   s(26) = (     1          0          0      )    f =( -0.2500000 )
                  (     1          0         -1      )       ( -0.2500000 )
                  (     1         -1          0      )       ( -0.2500000 )

 cart.    s(26) = (  1.0000000  0.0000000  0.0000000 )    f =( -0.3535534 )
                  (  0.0000000  1.0000000  0.0000000 )       ( -0.3535534 )
                  (  0.0000000  0.0000000 -1.0000000 )       ( -0.3535534 )


      isym = 27     inv. 180 deg rotation - cart. axis [0,1,0]   

 cryst.   s(27) = (     0          1         -1      )    f =( -0.2500000 )
                  (     0          1          0      )       ( -0.2500000 )
                  (    -1          1          0      )       ( -0.2500000 )

 cart.    s(27) = (  1.0000000  0.0000000  0.0000000 )    f =( -0.3535534 )
                  (  0.0000000 -1.0000000  0.0000000 )       ( -0.3535534 )
                  (  0.0000000  0.0000000  1.0000000 )       ( -0.3535534 )


      isym = 28     inv. 180 deg rotation - cart. axis [1,0,0]   

 cryst.   s(28) = (     0         -1          1      )    f =( -0.2500000 )
                  (    -1          0          1      )       ( -0.2500000 )
                  (     0          0          1      )       ( -0.2500000 )

 cart.    s(28) = ( -1.0000000  0.0000000  0.0000000 )    f =( -0.3535534 )
                  (  0.0000000  1.0000000  0.0000000 )       ( -0.3535534 )
                  (  0.0000000  0.0000000  1.0000000 )       ( -0.3535534 )


      isym = 29     inv. 180 deg rotation - cart. axis [1,1,0]   

 cryst.   s(29) = (    -1          0          0      )
                  (    -1          1          0      )
                  (    -1          0          1      )

 cart.    s(29) = (  0.0000000 -1.0000000  0.0000000 )
                  ( -1.0000000  0.0000000  0.0000000 )
                  (  0.0000000  0.0000000  1.0000000 )


      isym = 30     inv. 180 deg rotation - cart. axis [1,-1,0]  

 cryst.   s(30) = (     1          0          0      )
                  (     0          0          1      )
                  (     0          1          0      )

 cart.    s(30) = (  0.0000000  1.0000000  0.0000000 )
                  (  1.0000000  0.0000000  0.0000000 )
                  (  0.0000000  0.0000000  1.0000000 )


      isym = 31     inv.  90 deg rotation - cart. axis [0,0,-1]  

 cryst.   s(31) = (     0         -1          1      )
                  (     1         -1          0      )
                  (     0         -1          0      )

 cart.    s(31) = (  0.0000000 -1.0000000  0.0000000 )
                  (  1.0000000  0.0000000  0.0000000 )
                  (  0.0000000  0.0000000 -1.0000000 )


      isym = 32     inv.  90 deg rotation - cart. axis [0,0,1]   

 cryst.   s(32) = (     0          1         -1      )
                  (     0          0         -1      )
                  (     1          0         -1      )

 cart.    s(32) = (  0.0000000  1.0000000  0.0000000 )
                  ( -1.0000000  0.0000000  0.0000000 )
                  (  0.0000000  0.0000000 -1.0000000 )


      isym = 33     inv. 180 deg rotation - cart. axis [1,0,1]   

 cryst.   s(33) = (     1         -1          0      )
                  (     0         -1          0      )
                  (     0         -1          1      )

 cart.    s(33) = (  0.0000000  0.0000000 -1.0000000 )
                  (  0.0000000  1.0000000  0.0000000 )
                  ( -1.0000000  0.0000000  0.0000000 )


      isym = 34     inv. 180 deg rotation - cart. axis [-1,0,1]  

 cryst.   s(34) = (     0          0          1      )
                  (     0          1          0      )
                  (     1          0          0      )

 cart.    s(34) = (  0.0000000  0.0000000  1.0000000 )
                  (  0.0000000  1.0000000  0.0000000 )
                  (  1.0000000  0.0000000  0.0000000 )


      isym = 35     inv.  90 deg rotation - cart. axis [0,1,0]   

 cryst.   s(35) = (    -1          1          0      )
                  (    -1          0          1      )
                  (    -1          0          0      )

 cart.    s(35) = (  0.0000000  0.0000000 -1.0000000 )
                  (  0.0000000 -1.0000000  0.0000000 )
                  (  1.0000000  0.0000000  0.0000000 )


      isym = 36     inv.  90 deg rotation - cart. axis [0,-1,0]  

 cryst.   s(36) = (     0          0         -1      )
                  (     1          0         -1      )
                  (     0          1         -1      )

 cart.    s(36) = (  0.0000000  0.0000000  1.0000000 )
                  (  0.0000000 -1.0000000  0.0000000 )
                  ( -1.0000000  0.0000000  0.0000000 )


      isym = 37     inv. 180 deg rotation - cart. axis [0,1,1]   

 cryst.   s(37) = (     1          0         -1      )
                  (     0          1         -1      )
                  (     0          0         -1      )

 cart.    s(37) = (  1.0000000  0.0000000  0.0000000 )
                  (  0.0000000  0.0000000 -1.0000000 )
                  (  0.0000000 -1.0000000  0.0000000 )


      isym = 38     inv. 180 deg rotation - cart. axis [0,1,-1]  

 cryst.   s(38) = (     0          1          0      )
                  (     1          0          0      )
                  (     0          0          1      )

 cart.    s(38) = (  1.0000000  0.0000000  0.0000000 )
                  (  0.0000000  0.0000000  1.0000000 )
                  (  0.0000000  1.0000000  0.0000000 )


      isym = 39     inv.  90 deg rotation - cart. axis [-1,0,0]  

 cryst.   s(39) = (    -1          0          1      )
                  (    -1          0          0      )
                  (    -1          1          0      )

 cart.    s(39) = ( -1.0000000  0.0000000  0.0000000 )
                  (  0.0000000  0.0000000 -1.0000000 )
                  (  0.0000000  1.0000000  0.0000000 )


      isym = 40     inv.  90 deg rotation - cart. axis [1,0,0]   

 cryst.   s(40) = (     0         -1          0      )
                  (     0         -1          1      )
                  (     1         -1          0      )

 cart.    s(40) = ( -1.0000000  0.0000000  0.0000000 )
                  (  0.0000000  0.0000000  1.0000000 )
                  (  0.0000000 -1.0000000  0.0000000 )


      isym = 41     inv. 120 deg rotation - cart. axis [-1,-1,-1]

 cryst.   s(41) = (     0         -1          0      )    f =( -0.2500000 )
                  (     0          0         -1      )       ( -0.2500000 )
                  (    -1          0          0      )       ( -0.2500000 )

 cart.    s(41) = (  0.0000000 -1.0000000  0.0000000 )    f =( -0.3535534 )
                  (  0.0000000  0.0000000 -1.0000000 )       ( -0.3535534 )
                  ( -1.0000000  0.0000000  0.0000000 )       ( -0.3535534 )


      isym = 42     inv. 120 deg rotation - cart. axis [-1,1,1]  

 cryst.   s(42) = (     0          1          0      )    f =( -0.2500000 )
                  (    -1          1          0      )       ( -0.2500000 )
                  (     0          1         -1      )       ( -0.2500000 )

 cart.    s(42) = (  0.0000000  1.0000000  0.0000000 )    f =( -0.3535534 )
                  (  0.0000000  0.0000000 -1.0000000 )       ( -0.3535534 )
                  (  1.0000000  0.0000000  0.0000000 )       ( -0.3535534 )


      isym = 43     inv. 120 deg rotation - cart. axis [1,1,-1]  

 cryst.   s(43) = (    -1          0          1      )    f =( -0.2500000 )
                  (     0          0          1      )       ( -0.2500000 )
                  (     0         -1          1      )       ( -0.2500000 )

 cart.    s(43) = (  0.0000000 -1.0000000  0.0000000 )    f =( -0.3535534 )
                  (  0.0000000  0.0000000  1.0000000 )       ( -0.3535534 )
                  (  1.0000000  0.0000000  0.0000000 )       ( -0.3535534 )


      isym = 44     inv. 120 deg rotation - cart. axis [1,-1,1]  

 cryst.   s(44) = (     1          0         -1      )    f =( -0.2500000 )
                  (     1         -1          0      )       ( -0.2500000 )
                  (     1          0          0      )       ( -0.2500000 )

 cart.    s(44) = (  0.0000000  1.0000000  0.0000000 )    f =( -0.3535534 )
                  (  0.0000000  0.0000000  1.0000000 )       ( -0.3535534 )
                  ( -1.0000000  0.0000000  0.0000000 )       ( -0.3535534 )


      isym = 45     inv. 120 deg rotation - cart. axis [1,1,1]   

 cryst.   s(45) = (     0          0         -1      )    f =( -0.2500000 )
                  (    -1          0          0      )       ( -0.2500000 )
                  (     0         -1          0      )       ( -0.2500000 )

 cart.    s(45) = (  0.0000000  0.0000000 -1.0000000 )    f =( -0.3535534 )
                  ( -1.0000000  0.0000000  0.0000000 )       ( -0.3535534 )
                  (  0.0000000 -1.0000000  0.0000000 )       ( -0.3535534 )


      isym = 46     inv. 120 deg rotation - cart. axis [-1,1,-1] 

 cryst.   s(46) = (     0          0          1      )    f =( -0.2500000 )
                  (     0         -1          1      )       ( -0.2500000 )
                  (    -1          0          1      )       ( -0.2500000 )

 cart.    s(46) = (  0.0000000  0.0000000 -1.0000000 )    f =( -0.3535534 )
                  (  1.0000000  0.0000000  0.0000000 )       ( -0.3535534 )
                  (  0.0000000  1.0000000  0.0000000 )       ( -0.3535534 )


      isym = 47     inv. 120 deg rotation - cart. axis [1,-1,-1] 

 cryst.   s(47) = (     1         -1          0      )    f =( -0.2500000 )
                  (     1          0          0      )       ( -0.2500000 )
                  (     1          0         -1      )       ( -0.2500000 )

 cart.    s(47) = (  0.0000000  0.0000000  1.0000000 )    f =( -0.3535534 )
                  (  1.0000000  0.0000000  0.0000000 )       ( -0.3535534 )
                  (  0.0000000 -1.0000000  0.0000000 )       ( -0.3535534 )


      isym = 48     inv. 120 deg rotation - cart. axis [-1,-1,1] 

 cryst.   s(48) = (    -1          1          0      )    f =( -0.2500000 )
                  (     0          1         -1      )       ( -0.2500000 )
                  (     0          1          0      )       ( -0.2500000 )

 cart.    s(48) = (  0.0000000  0.0000000  1.0000000 )    f =( -0.3535534 )
                  ( -1.0000000  0.0000000  0.0000000 )       ( -0.3535534 )
                  (  0.0000000  1.0000000  0.0000000 )       ( -0.3535534 )


   Cartesian axes

     site n.     atom                  positions (alat units)
         1           Si  tau(   1) = (   0.0000000   0.0000000   0.0000000  )
         2           Si  tau(   2) = (   0.3535534   0.3535534   0.3535534  )

   Crystallographic axes

     site n.     atom                  positions (cryst. coord.)
         1           Si  tau(   1) = (  0.0000000  0.0000000  0.0000000  )
         2           Si  tau(   2) = (  0.2500000  0.2500000  0.2500000  )

     number of k points=    29
                       cart. coord. in units 2pi/alat
        k(    1) = (   0.0000000   0.0000000   0.0000000), wk =   0.0039062
        k(    2) = (  -0.0883883   0.0883883   0.0883883), wk =   0.0312500
        k(    3) = (  -0.1767767   0.1767767   0.1767767), wk =   0.0312500
        k(    4) = (  -0.2651650   0.2651650   0.2651650), wk =   0.0312500
        k(    5) = (   0.3535534  -0.3535534  -0.3535534), wk =   0.0156250
        k(    6) = (   0.0000000   0.0000000   0.1767767), wk =   0.0234375
        k(    7) = (  -0.0883883   0.0883883   0.2651650), wk =   0.0937500
        k(    8) = (  -0.1767767   0.1767767   0.3535534), wk =   0.0937500
        k(    9) = (   0.4419417  -0.4419417  -0.2651650), wk =   0.0937500
        k(   10) = (   0.3535534  -0.3535534  -0.1767767), wk =   0.0937500
        k(   11) = (   0.2651650  -0.2651650  -0.0883883), wk =   0.0937500
        k(   12) = (   0.1767767  -0.1767767   0.0000000), wk =   0.0468750
        k(   13) = (   0.0000000   0.0000000   0.3535534), wk =   0.0234375
        k(   14) = (  -0.0883883   0.0883883   0.4419417), wk =   0.0937500
        k(   15) = (   0.5303301  -0.5303301  -0.1767767), wk =   0.0937500
        k(   16) = (   0.4419417  -0.4419417  -0.0883883), wk =   0.0937500
        k(   17) = (   0.3535534  -0.3535534   0.0000000), wk =   0.0468750
        k(   18) = (   0.0000000   0.0000000   0.5303301), wk =   0.0234375
        k(   19) = (   0.6187184  -0.6187184  -0.0883883), wk =   0.0937500
        k(   20) = (   0.5303301  -0.5303301   0.0000000), wk =   0.0468750
        k(   21) = (   0.0000000   0.0000000  -0.7071068), wk =   0.0117188
        k(   22) = (   0.0000000   0.1767767   0.3535534), wk =   0.0937500
        k(   23) = (   0.6187184  -0.4419417  -0.2651650), wk =   0.1875000
        k(   24) = (   0.5303301  -0.3535534  -0.1767767), wk =   0.0937500
        k(   25) = (   0.7071068  -0.5303301  -0.1767767), wk =   0.0937500
        k(   26) = (   0.6187184  -0.4419417  -0.0883883), wk =   0.1875000
        k(   27) = (   0.5303301  -0.3535534   0.0000000), wk =   0.0937500
        k(   28) = (   0.0000000   0.1767767  -0.7071068), wk =   0.0468750
        k(   29) = (   0.0000000   0.3535534  -0.7071068), wk =   0.0234375

                       cryst. coord.
        k(    1) = (   0.0000000   0.0000000   0.0000000), wk =   0.0039062
        k(    2) = (   0.0000000   0.0000000   0.1250000), wk =   0.0312500
        k(    3) = (   0.0000000   0.0000000   0.2500000), wk =   0.0312500
        k(    4) = (   0.0000000   0.0000000   0.3750000), wk =   0.0312500
        k(    5) = (   0.0000000   0.0000000  -0.5000000), wk =   0.0156250
        k(    6) = (   0.0000000   0.1250000   0.1250000), wk =   0.0234375
        k(    7) = (   0.0000000   0.1250000   0.2500000), wk =   0.0937500
        k(    8) = (   0.0000000   0.1250000   0.3750000), wk =   0.0937500
        k(    9) = (   0.0000000   0.1250000  -0.5000000), wk =   0.0937500
        k(   10) = (   0.0000000   0.1250000  -0.3750000), wk =   0.0937500
        k(   11) = (   0.0000000   0.1250000  -0.2500000), wk =   0.0937500
        k(   12) = (   0.0000000   0.1250000  -0.1250000), wk =   0.0468750
        k(   13) = (   0.0000000   0.2500000   0.2500000), wk =   0.0234375
        k(   14) = (   0.0000000   0.2500000   0.3750000), wk =   0.0937500
        k(   15) = (   0.0000000   0.2500000  -0.5000000), wk =   0.0937500
        k(   16) = (   0.0000000   0.2500000  -0.3750000), wk =   0.0937500
        k(   17) = (   0.0000000   0.2500000  -0.2500000), wk =   0.0468750
        k(   18) = (   0.0000000   0.3750000   0.3750000), wk =   0.0234375
        k(   19) = (   0.0000000   0.3750000  -0.5000000), wk =   0.0937500
        k(   20) = (   0.0000000   0.3750000  -0.3750000), wk =   0.0468750
        k(   21) = (   0.0000000  -0.5000000  -0.5000000), wk =   0.0117188
        k(   22) = (   0.1250000   0.2500000   0.3750000), wk =   0.0937500
        k(   23) = (   0.1250000   0.2500000  -0.5000000), wk =   0.1875000
        k(   24) = (   0.1250000   0.2500000  -0.3750000), wk =   0.0937500
        k(   25) = (   0.1250000   0.3750000  -0.5000000), wk =   0.0937500
        k(   26) = (   0.1250000   0.3750000  -0.3750000), wk =   0.1875000
        k(   27) = (   0.1250000   0.3750000  -0.2500000), wk =   0.0937500
        k(   28) = (   0.1250000  -0.5000000  -0.3750000), wk =   0.0468750
        k(   29) = (   0.2500000  -0.5000000  -0.2500000), wk =   0.0234375

     Dense  grid:     5817 G-vectors     FFT dimensions: (  32,  32,  32)

     Smooth grid:     2085 G-vectors     FFT dimensions: (  20,  20,  20)

     Dynamical RAM for                 wfc:       0.02 MB

     Dynamical RAM for     wfc (w. buffer):       0.47 MB

     Dynamical RAM for           str. fact:       0.09 MB

     Dynamical RAM for           local pot:       0.00 MB

     Dynamical RAM for          nlocal pot:       0.14 MB

     Dynamical RAM for                qrad:       0.88 MB

     Dynamical RAM for          rho,v,vnew:       1.02 MB

     Dynamical RAM for               rhoin:       0.34 MB

     Dynamical RAM for            rho*nmix:       1.42 MB

     Dynamical RAM for           G-vectors:       0.35 MB

     Dynamical RAM for          h,s,v(r/c):       0.00 MB

     Dynamical RAM for          <psi|beta>:       0.00 MB

     Dynamical RAM for                 psi:       0.03 MB

     Dynamical RAM for                hpsi:       0.03 MB

     Dynamical RAM for                spsi:       0.03 MB

     Dynamical RAM for      wfcinit/wfcrot:       0.06 MB

     Dynamical RAM for           addusdens:      16.69 MB

     Estimated static dynamical RAM per process >       4.71 MB

     Estimated max dynamical RAM per process >      22.82 MB

     Check: negative core charge=   -0.000004

     Initial potential from superposition of free atoms

     starting charge    7.99888, renormalised to    8.00000
     Starting wfcs are    8 randomized atomic wfcs

     total cpu time spent up to now is        0.4 secs

     Self-consistent Calculation

     iteration #  1     ecut=    15.00 Ry     beta= 0.40
     Davidson diagonalization with overlap

---- Real-time Memory Report at c_bands before calling an iterative solver
            50 MiB given to the printing process from OS
             0 MiB allocation reported by mallinfo(arena+hblkhd)
          2737 MiB available memory on the node where the printing process lives
------------------
     ethr =  1.00E-02,  avg # of iterations =  2.0

     Threshold (ethr) on eigenvalues was too large:
     Diagonalizing with lowered threshold

     Davidson diagonalization with overlap

---- Real-time Memory Report at c_bands before calling an iterative solver
            52 MiB given to the printing process from OS
             0 MiB allocation reported by mallinfo(arena+hblkhd)
          2722 MiB available memory on the node where the printing process lives
------------------
     ethr =  6.53E-04,  avg # of iterations =  1.4

     total cpu time spent up to now is        0.6 secs

     total energy              =     -22.83415071 Ry
     estimated scf accuracy    <       0.05623113 Ry

     iteration #  2     ecut=    15.00 Ry     beta= 0.40
     Davidson diagonalization with overlap

---- Real-time Memory Report at c_bands before calling an iterative solver
            52 MiB given to the printing process from OS
             0 MiB allocation reported by mallinfo(arena+hblkhd)
          2722 MiB available memory on the node where the printing process lives
------------------
     ethr =  7.03E-04,  avg # of iterations =  1.0

     total cpu time spent up to now is        0.8 secs

     total energy              =     -22.83107560 Ry
     estimated scf accuracy    <       0.01739535 Ry

     iteration #  3     ecut=    15.00 Ry     beta= 0.40
     Davidson diagonalization with overlap

---- Real-time Memory Report at c_bands before calling an iterative solver
            52 MiB given to the printing process from OS
             0 MiB allocation reported by mallinfo(arena+hblkhd)
          2722 MiB available memory on the node where the printing process lives
------------------
     ethr =  2.17E-04,  avg # of iterations =  1.8

     total cpu time spent up to now is        0.9 secs

     total energy              =     -22.83265559 Ry
     estimated scf accuracy    <       0.00032165 Ry

     iteration #  4     ecut=    15.00 Ry     beta= 0.40
     Davidson diagonalization with overlap

---- Real-time Memory Report at c_bands before calling an iterative solver
            52 MiB given to the printing process from OS
             0 MiB allocation reported by mallinfo(arena+hblkhd)
          2722 MiB available memory on the node where the printing process lives
------------------
     ethr =  4.02E-06,  avg # of iterations =  3.6

     total cpu time spent up to now is        1.1 secs

     total energy              =     -22.83279853 Ry
     estimated scf accuracy    <       0.00022018 Ry

     iteration #  5     ecut=    15.00 Ry     beta= 0.40
     Davidson diagonalization with overlap

---- Real-time Memory Report at c_bands before calling an iterative solver
            52 MiB given to the printing process from OS
             0 MiB allocation reported by mallinfo(arena+hblkhd)
          2722 MiB available memory on the node where the printing process lives
------------------
     ethr =  2.75E-06,  avg # of iterations =  1.9

     total cpu time spent up to now is        1.2 secs

     total energy              =     -22.83282292 Ry
     estimated scf accuracy    <       0.00000035 Ry

     iteration #  6     ecut=    15.00 Ry     beta= 0.40
     Davidson diagonalization with overlap

---- Real-time Memory Report at c_bands before calling an iterative solver
            53 MiB given to the printing process from OS
             0 MiB allocation reported by mallinfo(arena+hblkhd)
          2722 MiB available memory on the node where the printing process lives
------------------
     ethr =  4.33E-09,  avg # of iterations =  9.0

     total cpu time spent up to now is        1.6 secs

     total energy              =     -22.83283153 Ry
     estimated scf accuracy    <       0.00000232 Ry

     iteration #  7     ecut=    15.00 Ry     beta= 0.40
     Davidson diagonalization with overlap

---- Real-time Memory Report at c_bands before calling an iterative solver
            53 MiB given to the printing process from OS
             0 MiB allocation reported by mallinfo(arena+hblkhd)
          2722 MiB available memory on the node where the printing process lives
------------------
     ethr =  4.33E-09,  avg # of iterations =  2.3

     total cpu time spent up to now is        1.8 secs

     total energy              =     -22.83283039 Ry
     estimated scf accuracy    <       0.00000754 Ry

     iteration #  8     ecut=    15.00 Ry     beta= 0.40
     Davidson diagonalization with overlap

---- Real-time Memory Report at c_bands before calling an iterative solver
            53 MiB given to the printing process from OS
             0 MiB allocation reported by mallinfo(arena+hblkhd)
          2722 MiB available memory on the node where the printing process lives
------------------
     ethr =  4.33E-09,  avg # of iterations =  1.8

     total cpu time spent up to now is        1.9 secs

     total energy              =     -22.83283065 Ry
     estimated scf accuracy    <       0.00000456 Ry

     iteration #  9     ecut=    15.00 Ry     beta= 0.40
     Davidson diagonalization with overlap

---- Real-time Memory Report at c_bands before calling an iterative solver
            53 MiB given to the printing process from OS
             0 MiB allocation reported by mallinfo(arena+hblkhd)
          2722 MiB available memory on the node where the printing process lives
------------------
     ethr =  4.33E-09,  avg # of iterations =  1.0

     total cpu time spent up to now is        2.1 secs

     total energy              =     -22.83283078 Ry
     estimated scf accuracy    <       0.00000509 Ry

     iteration # 10     ecut=    15.00 Ry     beta= 0.40
     Davidson diagonalization with overlap

---- Real-time Memory Report at c_bands before calling an iterative solver
            53 MiB given to the printing process from OS
             0 MiB allocation reported by mallinfo(arena+hblkhd)
          2722 MiB available memory on the node where the printing process lives
------------------
     ethr =  4.33E-09,  avg # of iterations =  1.0

     total cpu time spent up to now is        2.3 secs

     total energy              =     -22.83283117 Ry
     estimated scf accuracy    <       0.00000546 Ry

     iteration # 11     ecut=    15.00 Ry     beta= 0.40
     Davidson diagonalization with overlap

---- Real-time Memory Report at c_bands before calling an iterative solver
            53 MiB given to the printing process from OS
             0 MiB allocation reported by mallinfo(arena+hblkhd)
          2721 MiB available memory on the node where the printing process lives
------------------
     ethr =  4.33E-09,  avg # of iterations =  1.0

     total cpu time spent up to now is        2.4 secs

     total energy              =     -22.83283110 Ry
     estimated scf accuracy    <       0.00000658 Ry

     iteration # 12     ecut=    15.00 Ry     beta= 0.40
     Davidson diagonalization with overlap

---- Real-time Memory Report at c_bands before calling an iterative solver
            53 MiB given to the printing process from OS
             0 MiB allocation reported by mallinfo(arena+hblkhd)
          2721 MiB available memory on the node where the printing process lives
------------------
     ethr =  4.33E-09,  avg # of iterations =  1.0

     total cpu time spent up to now is        2.6 secs

     total energy              =     -22.83283103 Ry
     estimated scf accuracy    <       0.00000638 Ry

     iteration # 13     ecut=    15.00 Ry     beta= 0.40
     Davidson diagonalization with overlap

---- Real-time Memory Report at c_bands before calling an iterative solver
            53 MiB given to the printing process from OS
             0 MiB allocation reported by mallinfo(arena+hblkhd)
          2721 MiB available memory on the node where the printing process lives
------------------
     ethr =  4.33E-09,  avg # of iterations =  1.0

     total cpu time spent up to now is        2.8 secs

     total energy              =     -22.83283013 Ry
     estimated scf accuracy    <       0.00000620 Ry

     iteration # 14     ecut=    15.00 Ry     beta= 0.40
     Davidson diagonalization with overlap

---- Real-time Memory Report at c_bands before calling an iterative solver
            53 MiB given to the printing process from OS
             0 MiB allocation reported by mallinfo(arena+hblkhd)
          2721 MiB available memory on the node where the printing process lives
------------------
     ethr =  4.33E-09,  avg # of iterations =  1.1

     total cpu time spent up to now is        2.9 secs

     total energy              =     -22.83282852 Ry
     estimated scf accuracy    <       0.00000371 Ry

     iteration # 15     ecut=    15.00 Ry     beta= 0.40
     Davidson diagonalization with overlap

---- Real-time Memory Report at c_bands before calling an iterative solver
            53 MiB given to the printing process from OS
             0 MiB allocation reported by mallinfo(arena+hblkhd)
          2719 MiB available memory on the node where the printing process lives
------------------
     ethr =  4.33E-09,  avg # of iterations =  2.9

     total cpu time spent up to now is        3.1 secs

     total energy              =     -22.83282892 Ry
     estimated scf accuracy    <       0.00000003 Ry

     iteration # 16     ecut=    15.00 Ry     beta= 0.40
     Davidson diagonalization with overlap

---- Real-time Memory Report at c_bands before calling an iterative solver
            53 MiB given to the printing process from OS
             0 MiB allocation reported by mallinfo(arena+hblkhd)
          2719 MiB available memory on the node where the printing process lives
------------------
     ethr =  4.02E-10,  avg # of iterations =  2.4

     total cpu time spent up to now is        3.3 secs

     total energy              =     -22.83282893 Ry
     estimated scf accuracy    <          6.5E-09 Ry

     iteration # 17     ecut=    15.00 Ry     beta= 0.40
     Davidson diagonalization with overlap

---- Real-time Memory Report at c_bands before calling an iterative solver
            53 MiB given to the printing process from OS
             0 MiB allocation reported by mallinfo(arena+hblkhd)
          2718 MiB available memory on the node where the printing process lives
------------------
     ethr =  8.11E-11,  avg # of iterations =  2.3

     total cpu time spent up to now is        3.5 secs

     total energy              =     -22.83282893 Ry
     estimated scf accuracy    <          4.9E-09 Ry

     iteration # 18     ecut=    15.00 Ry     beta= 0.40
     Davidson diagonalization with overlap

---- Real-time Memory Report at c_bands before calling an iterative solver
            53 MiB given to the printing process from OS
             0 MiB allocation reported by mallinfo(arena+hblkhd)
          2718 MiB available memory on the node where the printing process lives
------------------
     ethr =  6.18E-11,  avg # of iterations =  1.0

     total cpu time spent up to now is        3.7 secs

     total energy              =     -22.83282893 Ry
     estimated scf accuracy    <          5.3E-10 Ry

     iteration # 19     ecut=    15.00 Ry     beta= 0.40
     Davidson diagonalization with overlap

---- Real-time Memory Report at c_bands before calling an iterative solver
            53 MiB given to the printing process from OS
             0 MiB allocation reported by mallinfo(arena+hblkhd)
          2718 MiB available memory on the node where the printing process lives
------------------
     ethr =  6.67E-12,  avg # of iterations =  2.9

     total cpu time spent up to now is        3.9 secs

     total energy              =     -22.83282893 Ry
     estimated scf accuracy    <          2.5E-09 Ry

     iteration # 20     ecut=    15.00 Ry     beta= 0.40
     Davidson diagonalization with overlap

---- Real-time Memory Report at c_bands before calling an iterative solver
            53 MiB given to the printing process from OS
             0 MiB allocation reported by mallinfo(arena+hblkhd)
          2718 MiB available memory on the node where the printing process lives
------------------
     ethr =  6.67E-12,  avg # of iterations =  1.0

     total cpu time spent up to now is        4.0 secs

     total energy              =     -22.83282893 Ry
     estimated scf accuracy    <          1.1E-09 Ry

     iteration # 21     ecut=    15.00 Ry     beta= 0.40
     Davidson diagonalization with overlap

---- Real-time Memory Report at c_bands before calling an iterative solver
            53 MiB given to the printing process from OS
             0 MiB allocation reported by mallinfo(arena+hblkhd)
          2718 MiB available memory on the node where the printing process lives
------------------
     ethr =  6.67E-12,  avg # of iterations =  1.0

     total cpu time spent up to now is        4.2 secs

     total energy              =     -22.83282893 Ry
     estimated scf accuracy    <          1.0E-09 Ry

     iteration # 22     ecut=    15.00 Ry     beta= 0.40
     Davidson diagonalization with overlap

---- Real-time Memory Report at c_bands before calling an iterative solver
            53 MiB given to the printing process from OS
             0 MiB allocation reported by mallinfo(arena+hblkhd)
          2718 MiB available memory on the node where the printing process lives
------------------
     ethr =  6.67E-12,  avg # of iterations =  1.0

     total cpu time spent up to now is        4.4 secs

     total energy              =     -22.83282893 Ry
     estimated scf accuracy    <          4.6E-10 Ry

     iteration # 23     ecut=    15.00 Ry     beta= 0.40
     Davidson diagonalization with overlap

---- Real-time Memory Report at c_bands before calling an iterative solver
            53 MiB given to the printing process from OS
             0 MiB allocation reported by mallinfo(arena+hblkhd)
          2718 MiB available memory on the node where the printing process lives
------------------
     ethr =  5.72E-12,  avg # of iterations =  1.0

     total cpu time spent up to now is        4.5 secs

     End of self-consistent calculation

          k = 0.0000 0.0000 0.0000 (   259 PWs)   bands (ev):

    -5.6522   6.5210   6.5210   6.5210

     occupation numbers 
     1.0000   1.0000   1.0000   1.0000

          k =-0.0884 0.0884 0.0884 (   271 PWs)   bands (ev):

    -5.4436   4.9006   6.2181   6.2181

     occupation numbers 
     1.0000   1.0000   1.0000   1.0000

          k =-0.1768 0.1768 0.1768 (   268 PWs)   bands (ev):

    -4.8333   2.5225   5.7327   5.7327

     occupation numbers 
     1.0000   1.0000   1.0000   1.0000

          k =-0.2652 0.2652 0.2652 (   256 PWs)   bands (ev):

    -3.9137   0.4523   5.3973   5.3973

     occupation numbers 
     1.0000   1.0000   1.0000   1.0000

          k = 0.3536-0.3536-0.3536 (   266 PWs)   bands (ev):

    -3.2495  -0.6050   5.2817   5.2817

     occupation numbers 
     1.0000   1.0000   1.0000   1.0000

          k = 0.0000 0.0000 0.1768 (   267 PWs)   bands (ev):

    -5.3732   5.2038   5.6796   5.6796

     occupation numbers 
     1.0000   1.0000   1.0000   1.0000

          k =-0.0884 0.0884 0.2652 (   263 PWs)   bands (ev):

    -4.8934   3.2559   5.1533   5.2471

     occupation numbers 
     1.0000   1.0000   1.0000   1.0000

          k =-0.1768 0.1768 0.3536 (   257 PWs)   bands (ev):

    -4.0565   1.1414   4.6413   4.8780

     occupation numbers 
     1.0000   1.0000   1.0000   1.0000

          k = 0.4419-0.4419-0.2652 (   259 PWs)   bands (ev):

    -3.1639  -0.3685   4.1824   4.9043

     occupation numbers 
     1.0000   1.0000   1.0000   1.0000

          k = 0.3536-0.3536-0.1768 (   254 PWs)   bands (ev):

    -3.4188   0.0155   3.9919   5.2123

     occupation numbers 
     1.0000   1.0000   1.0000   1.0000

          k = 0.2652-0.2652-0.0884 (   262 PWs)   bands (ev):

    -4.3713   1.8189   4.1384   5.7205

     occupation numbers 
     1.0000   1.0000   1.0000   1.0000

          k = 0.1768-0.1768 0.0000 (   273 PWs)   bands (ev):

    -5.0996   3.8097   4.8278   6.2181

     occupation numbers 
     1.0000   1.0000   1.0000   1.0000

          k = 0.0000 0.0000 0.3536 (   258 PWs)   bands (ev):

    -4.5452   2.9926   4.5627   4.5627

     occupation numbers 
     1.0000   1.0000   1.0000   1.0000

          k =-0.0884 0.0884 0.4419 (   257 PWs)   bands (ev):

    -3.8175   1.5296   3.7612   4.2357

     occupation numbers 
     1.0000   1.0000   1.0000   1.0000

          k = 0.5303-0.5303-0.1768 (   254 PWs)   bands (ev):

    -2.8626   0.0402   2.8759   4.2404

     occupation numbers 
     1.0000   1.0000   1.0000   1.0000

          k = 0.4419-0.4419-0.0884 (   253 PWs)   bands (ev):

    -2.6484  -0.2298   2.4018   4.5700

     occupation numbers 
     1.0000   1.0000   1.0000   1.0000

          k = 0.3536-0.3536 0.0000 (   256 PWs)   bands (ev):

    -3.5560   0.9693   2.6404   5.1476

     occupation numbers 
     1.0000   1.0000   1.0000   1.0000

          k = 0.0000 0.0000 0.5303 (   254 PWs)   bands (ev):

    -3.2013   0.7151   3.8252   3.8252

     occupation numbers 
     1.0000   1.0000   1.0000   1.0000

          k = 0.6187-0.6187-0.0884 (   252 PWs)   bands (ev):

    -2.2796  -0.3952   2.9645   3.7474

     occupation numbers 
     1.0000   1.0000   1.0000   1.0000

          k = 0.5303-0.5303 0.0000 (   264 PWs)   bands (ev):

    -1.8191  -0.8080   2.0652   4.0131

     occupation numbers 
     1.0000   1.0000   1.0000   1.0000

          k = 0.0000 0.0000-0.7071 (   254 PWs)   bands (ev):

    -1.4080  -1.4080   3.5730   3.5730

     occupation numbers 
     1.0000   1.0000   1.0000   1.0000

          k = 0.0000 0.1768 0.3536 (   258 PWs)   bands (ev):

    -4.2911   2.1868   3.7121   5.0463

     occupation numbers 
     1.0000   1.0000   1.0000   1.0000

          k = 0.6187-0.4419-0.2652 (   258 PWs)   bands (ev):

    -3.3773   0.5893   3.0987   4.5225

     occupation numbers 
     1.0000   1.0000   1.0000   1.0000

          k = 0.5303-0.3536-0.1768 (   254 PWs)   bands (ev):

    -2.6997  -0.3919   2.9736   4.2831

     occupation numbers 
     1.0000   1.0000   1.0000   1.0000

          k = 0.7071-0.5303-0.1768 (   253 PWs)   bands (ev):

    -2.9952   0.4912   3.0431   3.6616

     occupation numbers 
     1.0000   1.0000   1.0000   1.0000

          k = 0.6187-0.4419-0.0884 (   258 PWs)   bands (ev):

    -2.0914  -0.5040   2.3199   3.4539

     occupation numbers 
     1.0000   1.0000   1.0000   1.0000

          k = 0.5303-0.3536 0.0000 (   254 PWs)   bands (ev):

    -2.4513  -0.1332   2.1466   3.8443

     occupation numbers 
     1.0000   1.0000   1.0000   1.0000

          k = 0.0000 0.1768-0.7071 (   254 PWs)   bands (ev):

    -1.3238  -1.3238   2.9834   2.9834

     occupation numbers 
     1.0000   1.0000   1.0000   1.0000

          k = 0.0000 0.3536-0.7071 (   264 PWs)   bands (ev):

    -1.2308  -1.2308   2.5282   2.5282

     occupation numbers 
     1.0000   1.0000   1.0000   1.0000

     highest occupied level (ev):     6.5210

!    total energy              =     -22.83282893 Ry
     estimated scf accuracy    <          3.3E-11 Ry

     The total energy is the sum of the following terms:
     one-electron contribution =       5.38679082 Ry
     hartree contribution      =       1.07604199 Ry
     xc contribution           =     -12.34374486 Ry
     ewald contribution        =     -16.95191687 Ry

     convergence has been achieved in  23 iterations

     Writing output data file ./si.save/

     init_run     :      0.30s CPU      0.30s WALL (       1 calls)
     electrons    :      4.08s CPU      4.14s WALL (       1 calls)

     Called by init_run:
     wfcinit      :      0.05s CPU      0.05s WALL (       1 calls)
     wfcinit:atom :      0.00s CPU      0.00s WALL (      29 calls)
     wfcinit:wfcr :      0.04s CPU      0.04s WALL (      29 calls)
     potinit      :      0.02s CPU      0.02s WALL (       1 calls)
     hinit0       :      0.20s CPU      0.20s WALL (       1 calls)

     Called by electrons:
     c_bands      :      2.30s CPU      2.35s WALL (      24 calls)
     sum_band     :      0.83s CPU      0.84s WALL (      24 calls)
     v_of_rho     :      0.43s CPU      0.43s WALL (      24 calls)
     v_h          :      0.01s CPU      0.01s WALL (      24 calls)
     v_xc         :      0.41s CPU      0.41s WALL (      24 calls)
     newd         :      0.50s CPU      0.50s WALL (      24 calls)
     mix_rho      :      0.03s CPU      0.03s WALL (      24 calls)

     Called by c_bands:
     init_us_2    :      0.16s CPU      0.16s WALL (    1421 calls)
     cegterg      :      1.93s CPU      1.97s WALL (     696 calls)

     Called by sum_band:
     sum_band:wei :      0.00s CPU      0.00s WALL (      24 calls)
     sum_band:loo :      0.37s CPU      0.37s WALL (      24 calls)
     sum_band:buf :      0.00s CPU      0.00s WALL (     696 calls)
     sum_band:ini :      0.08s CPU      0.08s WALL (     696 calls)
     sum_band:cal :      0.08s CPU      0.08s WALL (     696 calls)
     sum_band:bec :      0.01s CPU      0.01s WALL (     696 calls)
     addusdens    :      0.41s CPU      0.42s WALL (      24 calls)
     addusd:skk   :      0.00s CPU      0.00s WALL (      24 calls)
     addusd:dgemm :      0.13s CPU      0.13s WALL (      24 calls)
     addusd:qvan2 :      0.20s CPU      0.20s WALL (      24 calls)

     Called by *egterg:
     cdiaghg      :      0.06s CPU      0.06s WALL (    2013 calls)
     cegterg:over :      0.05s CPU      0.06s WALL (    1346 calls)
     cegterg:upda :      0.03s CPU      0.03s WALL (    1346 calls)
     cegterg:last :      0.06s CPU      0.06s WALL (    1252 calls)
     h_psi        :      1.47s CPU      1.50s WALL (    2071 calls)
     s_psi        :      0.24s CPU      0.24s WALL (    2071 calls)
     g_psi        :      0.01s CPU      0.01s WALL (    1346 calls)

     Called by h_psi:
     h_psi:calbec :      0.20s CPU      0.21s WALL (    2071 calls)
     vloc_psi     :      1.02s CPU      1.05s WALL (    2071 calls)
     add_vuspsi   :      0.24s CPU      0.24s WALL (    2071 calls)

     General routines
     calbec       :      0.27s CPU      0.28s WALL (    2767 calls)
     fft          :      0.12s CPU      0.12s WALL (     311 calls)
     ffts         :      0.00s CPU      0.00s WALL (      48 calls)
     fftw         :      1.02s CPU      1.04s WALL (   17632 calls)
     interpolate  :      0.01s CPU      0.01s WALL (      24 calls)

     Parallel routines

     PWSCF        :      4.47s CPU      4.54s WALL


   This run was terminated on:  16:56:19  11May2023            

=------------------------------------------------------------------------------=
   JOB DONE.
=------------------------------------------------------------------------------=
