
     Program PWSCF v.6.8 starts on 11May2023 at 16:56:48 

     This program is part of the open-source Quantum ESPRESSO suite
     for quantum simulation of materials; please cite
         "P. Giannozzi et al., J. Phys.:Condens. Matter 21 395502 (2009);
         "P. Giannozzi et al., J. Phys.:Condens. Matter 29 465901 (2017);
         "P. Giannozzi et al., J. Chem. Phys. 152 154105 (2020);
          URL http://www.quantum-espresso.org", 
     in publications or presentations arising from this work. More details at
     http://www.quantum-espresso.org/quote

     Parallel version (MPI), running on     1 processors

     MPI processes distributed on     1 nodes
     2133 MiB available memory on the printing compute node when the environment starts

     Reading input from ecut_30.in

     Current dimensions of program PWSCF are:
     Max number of different atomic species (ntypx) = 10
     Max number of k-points (npk) =  40000
     Max angular momentum in pseudopotentials (lmaxx) =  4
     Message from routine volume:
     axis vectors are left-handed
     Message from routine setup:
     using ibrav=0 with symmetry is DISCOURAGED, use correct ibrav instead

     Subspace diagonalization in iterative solution of the eigenvalue problem:
     a serial algorithm will be used


     G-vector sticks info
     --------------------
     sticks:   dense  smooth     PW     G-vecs:    dense   smooth      PW
     Sum         847     433    139                16529     5817    1067

     Using Slab Decomposition



     bravais-lattice index     =            0
     lattice parameter (alat)  =       7.1903  a.u.
     unit-cell volume          =     262.8607 (a.u.)^3
     number of atoms/cell      =            2
     number of atomic types    =            1
     number of electrons       =         8.00
     number of Kohn-Sham states=            4
     kinetic-energy cutoff     =      30.0000  Ry
     charge density cutoff     =     240.0000  Ry
     scf convergence threshold =      4.0E-10
     mixing beta               =       0.4000
     number of iterations used =            8  plain     mixing
     Exchange-correlation= PBE
                           (   1   4   3   4   0   0   0)

     celldm(1)=   7.190298  celldm(2)=   0.000000  celldm(3)=   0.000000
     celldm(4)=   0.000000  celldm(5)=   0.000000  celldm(6)=   0.000000

     crystal axes: (cart. coord. in units of alat)
               a(1) = (   0.707107   0.707107   0.000000 )  
               a(2) = (   0.707107   0.000000   0.707107 )  
               a(3) = (   0.000000   0.707107   0.707107 )  

     reciprocal axes: (cart. coord. in units 2 pi/alat)
               b(1) = (  0.707107  0.707107 -0.707107 )  
               b(2) = (  0.707107 -0.707107  0.707107 )  
               b(3) = ( -0.707107  0.707107  0.707107 )  


     PseudoPot. # 1 for Si read from file:
     ./pseudo/Si.pbe-n-rrkjus_psl.1.0.0.UPF
     MD5 check sum: 0b0bb1205258b0d07b9f9672cf965d36
     Pseudo is Ultrasoft + core correction, Zval =  4.0
     Generated using "atomic" code by A. Dal Corso  v.5.1
     Using radial grid of 1141 points,  6 beta functions with: 
                l(1) =   0
                l(2) =   0
                l(3) =   1
                l(4) =   1
                l(5) =   2
                l(6) =   2
     Q(r) pseudized with 0 coefficients 


     atomic species   valence    mass     pseudopotential
        Si             4.00    28.08550     Si( 1.00)

     48 Sym. Ops., with inversion, found (24 have fractional translation)


                                    s                        frac. trans.

      isym =  1     identity                                     

 cryst.   s( 1) = (     1          0          0      )
                  (     0          1          0      )
                  (     0          0          1      )

 cart.    s( 1) = (  1.0000000  0.0000000  0.0000000 )
                  (  0.0000000  1.0000000  0.0000000 )
                  (  0.0000000  0.0000000  1.0000000 )


      isym =  2     180 deg rotation - cart. axis [0,0,1]        

 cryst.   s( 2) = (    -1          0          0      )
                  (    -1          0          1      )
                  (    -1          1          0      )

 cart.    s( 2) = ( -1.0000000  0.0000000  0.0000000 )
                  (  0.0000000 -1.0000000  0.0000000 )
                  (  0.0000000  0.0000000  1.0000000 )


      isym =  3     180 deg rotation - cart. axis [0,1,0]        

 cryst.   s( 3) = (     0         -1          1      )
                  (     0         -1          0      )
                  (     1         -1          0      )

 cart.    s( 3) = ( -1.0000000  0.0000000  0.0000000 )
                  (  0.0000000  1.0000000  0.0000000 )
                  (  0.0000000  0.0000000 -1.0000000 )


      isym =  4     180 deg rotation - cart. axis [1,0,0]        

 cryst.   s( 4) = (     0          1         -1      )
                  (     1          0         -1      )
                  (     0          0         -1      )

 cart.    s( 4) = (  1.0000000  0.0000000  0.0000000 )
                  (  0.0000000 -1.0000000  0.0000000 )
                  (  0.0000000  0.0000000 -1.0000000 )


      isym =  5     180 deg rotation - cart. axis [1,1,0]        

 cryst.   s( 5) = (     1          0          0      )    f =( -0.2500000 )
                  (     1         -1          0      )       ( -0.2500000 )
                  (     1          0         -1      )       ( -0.2500000 )

 cart.    s( 5) = (  0.0000000  1.0000000  0.0000000 )    f =( -0.3535534 )
                  (  1.0000000  0.0000000  0.0000000 )       ( -0.3535534 )
                  (  0.0000000  0.0000000 -1.0000000 )       ( -0.3535534 )


      isym =  6     180 deg rotation - cart. axis [1,-1,0]       

 cryst.   s( 6) = (    -1          0          0      )    f =( -0.2500000 )
                  (     0          0         -1      )       ( -0.2500000 )
                  (     0         -1          0      )       ( -0.2500000 )

 cart.    s( 6) = (  0.0000000 -1.0000000  0.0000000 )    f =( -0.3535534 )
                  ( -1.0000000  0.0000000  0.0000000 )       ( -0.3535534 )
                  (  0.0000000  0.0000000 -1.0000000 )       ( -0.3535534 )


      isym =  7      90 deg rotation - cart. axis [0,0,-1]       

 cryst.   s( 7) = (     0          1         -1      )    f =( -0.2500000 )
                  (    -1          1          0      )       ( -0.2500000 )
                  (     0          1          0      )       ( -0.2500000 )

 cart.    s( 7) = (  0.0000000  1.0000000  0.0000000 )    f =( -0.3535534 )
                  ( -1.0000000  0.0000000  0.0000000 )       ( -0.3535534 )
                  (  0.0000000  0.0000000  1.0000000 )       ( -0.3535534 )


      isym =  8      90 deg rotation - cart. axis [0,0,1]        

 cryst.   s( 8) = (     0         -1          1      )    f =( -0.2500000 )
                  (     0          0          1      )       ( -0.2500000 )
                  (    -1          0          1      )       ( -0.2500000 )

 cart.    s( 8) = (  0.0000000 -1.0000000  0.0000000 )    f =( -0.3535534 )
                  (  1.0000000  0.0000000  0.0000000 )       ( -0.3535534 )
                  (  0.0000000  0.0000000  1.0000000 )       ( -0.3535534 )


      isym =  9     180 deg rotation - cart. axis [1,0,1]        

 cryst.   s( 9) = (    -1          1          0      )    f =( -0.2500000 )
                  (     0          1          0      )       ( -0.2500000 )
                  (     0          1         -1      )       ( -0.2500000 )

 cart.    s( 9) = (  0.0000000  0.0000000  1.0000000 )    f =( -0.3535534 )
                  (  0.0000000 -1.0000000  0.0000000 )       ( -0.3535534 )
                  (  1.0000000  0.0000000  0.0000000 )       ( -0.3535534 )


      isym = 10     180 deg rotation - cart. axis [-1,0,1]       

 cryst.   s(10) = (     0          0         -1      )    f =( -0.2500000 )
                  (     0         -1          0      )       ( -0.2500000 )
                  (    -1          0          0      )       ( -0.2500000 )

 cart.    s(10) = (  0.0000000  0.0000000 -1.0000000 )    f =( -0.3535534 )
                  (  0.0000000 -1.0000000  0.0000000 )       ( -0.3535534 )
                  ( -1.0000000  0.0000000  0.0000000 )       ( -0.3535534 )


      isym = 11      90 deg rotation - cart. axis [0,1,0]        

 cryst.   s(11) = (     1         -1          0      )    f =( -0.2500000 )
                  (     1          0         -1      )       ( -0.2500000 )
                  (     1          0          0      )       ( -0.2500000 )

 cart.    s(11) = (  0.0000000  0.0000000  1.0000000 )    f =( -0.3535534 )
                  (  0.0000000  1.0000000  0.0000000 )       ( -0.3535534 )
                  ( -1.0000000  0.0000000  0.0000000 )       ( -0.3535534 )


      isym = 12      90 deg rotation - cart. axis [0,-1,0]       

 cryst.   s(12) = (     0          0          1      )    f =( -0.2500000 )
                  (    -1          0          1      )       ( -0.2500000 )
                  (     0         -1          1      )       ( -0.2500000 )

 cart.    s(12) = (  0.0000000  0.0000000 -1.0000000 )    f =( -0.3535534 )
                  (  0.0000000  1.0000000  0.0000000 )       ( -0.3535534 )
                  (  1.0000000  0.0000000  0.0000000 )       ( -0.3535534 )


      isym = 13     180 deg rotation - cart. axis [0,1,1]        

 cryst.   s(13) = (    -1          0          1      )    f =( -0.2500000 )
                  (     0         -1          1      )       ( -0.2500000 )
                  (     0          0          1      )       ( -0.2500000 )

 cart.    s(13) = ( -1.0000000  0.0000000  0.0000000 )    f =( -0.3535534 )
                  (  0.0000000  0.0000000  1.0000000 )       ( -0.3535534 )
                  (  0.0000000  1.0000000  0.0000000 )       ( -0.3535534 )


      isym = 14     180 deg rotation - cart. axis [0,1,-1]       

 cryst.   s(14) = (     0         -1          0      )    f =( -0.2500000 )
                  (    -1          0          0      )       ( -0.2500000 )
                  (     0          0         -1      )       ( -0.2500000 )

 cart.    s(14) = ( -1.0000000  0.0000000  0.0000000 )    f =( -0.3535534 )
                  (  0.0000000  0.0000000 -1.0000000 )       ( -0.3535534 )
                  (  0.0000000 -1.0000000  0.0000000 )       ( -0.3535534 )


      isym = 15      90 deg rotation - cart. axis [-1,0,0]       

 cryst.   s(15) = (     1          0         -1      )    f =( -0.2500000 )
                  (     1          0          0      )       ( -0.2500000 )
                  (     1         -1          0      )       ( -0.2500000 )

 cart.    s(15) = (  1.0000000  0.0000000  0.0000000 )    f =( -0.3535534 )
                  (  0.0000000  0.0000000  1.0000000 )       ( -0.3535534 )
                  (  0.0000000 -1.0000000  0.0000000 )       ( -0.3535534 )


      isym = 16      90 deg rotation - cart. axis [1,0,0]        

 cryst.   s(16) = (     0          1          0      )    f =( -0.2500000 )
                  (     0          1         -1      )       ( -0.2500000 )
                  (    -1          1          0      )       ( -0.2500000 )

 cart.    s(16) = (  1.0000000  0.0000000  0.0000000 )    f =( -0.3535534 )
                  (  0.0000000  0.0000000 -1.0000000 )       ( -0.3535534 )
                  (  0.0000000  1.0000000  0.0000000 )       ( -0.3535534 )


      isym = 17     120 deg rotation - cart. axis [-1,-1,-1]     

 cryst.   s(17) = (     0          1          0      )
                  (     0          0          1      )
                  (     1          0          0      )

 cart.    s(17) = (  0.0000000  1.0000000  0.0000000 )
                  (  0.0000000  0.0000000  1.0000000 )
                  (  1.0000000  0.0000000  0.0000000 )


      isym = 18     120 deg rotation - cart. axis [-1,1,1]       

 cryst.   s(18) = (     0         -1          0      )
                  (     1         -1          0      )
                  (     0         -1          1      )

 cart.    s(18) = (  0.0000000 -1.0000000  0.0000000 )
                  (  0.0000000  0.0000000  1.0000000 )
                  ( -1.0000000  0.0000000  0.0000000 )


      isym = 19     120 deg rotation - cart. axis [1,1,-1]       

 cryst.   s(19) = (     1          0         -1      )
                  (     0          0         -1      )
                  (     0          1         -1      )

 cart.    s(19) = (  0.0000000  1.0000000  0.0000000 )
                  (  0.0000000  0.0000000 -1.0000000 )
                  ( -1.0000000  0.0000000  0.0000000 )


      isym = 20     120 deg rotation - cart. axis [1,-1,1]       

 cryst.   s(20) = (    -1          0          1      )
                  (    -1          1          0      )
                  (    -1          0          0      )

 cart.    s(20) = (  0.0000000 -1.0000000  0.0000000 )
                  (  0.0000000  0.0000000 -1.0000000 )
                  (  1.0000000  0.0000000  0.0000000 )


      isym = 21     120 deg rotation - cart. axis [1,1,1]        

 cryst.   s(21) = (     0          0          1      )
                  (     1          0          0      )
                  (     0          1          0      )

 cart.    s(21) = (  0.0000000  0.0000000  1.0000000 )
                  (  1.0000000  0.0000000  0.0000000 )
                  (  0.0000000  1.0000000  0.0000000 )


      isym = 22     120 deg rotation - cart. axis [-1,1,-1]      

 cryst.   s(22) = (     0          0         -1      )
                  (     0          1         -1      )
                  (     1          0         -1      )

 cart.    s(22) = (  0.0000000  0.0000000  1.0000000 )
                  ( -1.0000000  0.0000000  0.0000000 )
                  (  0.0000000 -1.0000000  0.0000000 )


      isym = 23     120 deg rotation - cart. axis [1,-1,-1]      

 cryst.   s(23) = (    -1          1          0      )
                  (    -1          0          0      )
                  (    -1          0          1      )

 cart.    s(23) = (  0.0000000  0.0000000 -1.0000000 )
                  ( -1.0000000  0.0000000  0.0000000 )
                  (  0.0000000  1.0000000  0.0000000 )


      isym = 24     120 deg rotation - cart. axis [-1,-1,1]      

 cryst.   s(24) = (     1         -1          0      )
                  (     0         -1          1      )
                  (     0         -1          0      )

 cart.    s(24) = (  0.0000000  0.0000000 -1.0000000 )
                  (  1.0000000  0.0000000  0.0000000 )
                  (  0.0000000 -1.0000000  0.0000000 )


      isym = 25     inversion                                    

 cryst.   s(25) = (    -1          0          0      )    f =( -0.2500000 )
                  (     0         -1          0      )       ( -0.2500000 )
                  (     0          0         -1      )       ( -0.2500000 )

 cart.    s(25) = ( -1.0000000  0.0000000  0.0000000 )    f =( -0.3535534 )
                  (  0.0000000 -1.0000000  0.0000000 )       ( -0.3535534 )
                  (  0.0000000  0.0000000 -1.0000000 )       ( -0.3535534 )


      isym = 26     inv. 180 deg rotation - cart. axis [0,0,1]   

 cryst.   s(26) = (     1          0          0      )    f =( -0.2500000 )
                  (     1          0         -1      )       ( -0.2500000 )
                  (     1         -1          0      )       ( -0.2500000 )

 cart.    s(26) = (  1.0000000  0.0000000  0.0000000 )    f =( -0.3535534 )
                  (  0.0000000  1.0000000  0.0000000 )       ( -0.3535534 )
                  (  0.0000000  0.0000000 -1.0000000 )       ( -0.3535534 )


      isym = 27     inv. 180 deg rotation - cart. axis [0,1,0]   

 cryst.   s(27) = (     0          1         -1      )    f =( -0.2500000 )
                  (     0          1          0      )       ( -0.2500000 )
                  (    -1          1          0      )       ( -0.2500000 )

 cart.    s(27) = (  1.0000000  0.0000000  0.0000000 )    f =( -0.3535534 )
                  (  0.0000000 -1.0000000  0.0000000 )       ( -0.3535534 )
                  (  0.0000000  0.0000000  1.0000000 )       ( -0.3535534 )


      isym = 28     inv. 180 deg rotation - cart. axis [1,0,0]   

 cryst.   s(28) = (     0         -1          1      )    f =( -0.2500000 )
                  (    -1          0          1      )       ( -0.2500000 )
                  (     0          0          1      )       ( -0.2500000 )

 cart.    s(28) = ( -1.0000000  0.0000000  0.0000000 )    f =( -0.3535534 )
                  (  0.0000000  1.0000000  0.0000000 )       ( -0.3535534 )
                  (  0.0000000  0.0000000  1.0000000 )       ( -0.3535534 )


      isym = 29     inv. 180 deg rotation - cart. axis [1,1,0]   

 cryst.   s(29) = (    -1          0          0      )
                  (    -1          1          0      )
                  (    -1          0          1      )

 cart.    s(29) = (  0.0000000 -1.0000000  0.0000000 )
                  ( -1.0000000  0.0000000  0.0000000 )
                  (  0.0000000  0.0000000  1.0000000 )


      isym = 30     inv. 180 deg rotation - cart. axis [1,-1,0]  

 cryst.   s(30) = (     1          0          0      )
                  (     0          0          1      )
                  (     0          1          0      )

 cart.    s(30) = (  0.0000000  1.0000000  0.0000000 )
                  (  1.0000000  0.0000000  0.0000000 )
                  (  0.0000000  0.0000000  1.0000000 )


      isym = 31     inv.  90 deg rotation - cart. axis [0,0,-1]  

 cryst.   s(31) = (     0         -1          1      )
                  (     1         -1          0      )
                  (     0         -1          0      )

 cart.    s(31) = (  0.0000000 -1.0000000  0.0000000 )
                  (  1.0000000  0.0000000  0.0000000 )
                  (  0.0000000  0.0000000 -1.0000000 )


      isym = 32     inv.  90 deg rotation - cart. axis [0,0,1]   

 cryst.   s(32) = (     0          1         -1      )
                  (     0          0         -1      )
                  (     1          0         -1      )

 cart.    s(32) = (  0.0000000  1.0000000  0.0000000 )
                  ( -1.0000000  0.0000000  0.0000000 )
                  (  0.0000000  0.0000000 -1.0000000 )


      isym = 33     inv. 180 deg rotation - cart. axis [1,0,1]   

 cryst.   s(33) = (     1         -1          0      )
                  (     0         -1          0      )
                  (     0         -1          1      )

 cart.    s(33) = (  0.0000000  0.0000000 -1.0000000 )
                  (  0.0000000  1.0000000  0.0000000 )
                  ( -1.0000000  0.0000000  0.0000000 )


      isym = 34     inv. 180 deg rotation - cart. axis [-1,0,1]  

 cryst.   s(34) = (     0          0          1      )
                  (     0          1          0      )
                  (     1          0          0      )

 cart.    s(34) = (  0.0000000  0.0000000  1.0000000 )
                  (  0.0000000  1.0000000  0.0000000 )
                  (  1.0000000  0.0000000  0.0000000 )


      isym = 35     inv.  90 deg rotation - cart. axis [0,1,0]   

 cryst.   s(35) = (    -1          1          0      )
                  (    -1          0          1      )
                  (    -1          0          0      )

 cart.    s(35) = (  0.0000000  0.0000000 -1.0000000 )
                  (  0.0000000 -1.0000000  0.0000000 )
                  (  1.0000000  0.0000000  0.0000000 )


      isym = 36     inv.  90 deg rotation - cart. axis [0,-1,0]  

 cryst.   s(36) = (     0          0         -1      )
                  (     1          0         -1      )
                  (     0          1         -1      )

 cart.    s(36) = (  0.0000000  0.0000000  1.0000000 )
                  (  0.0000000 -1.0000000  0.0000000 )
                  ( -1.0000000  0.0000000  0.0000000 )


      isym = 37     inv. 180 deg rotation - cart. axis [0,1,1]   

 cryst.   s(37) = (     1          0         -1      )
                  (     0          1         -1      )
                  (     0          0         -1      )

 cart.    s(37) = (  1.0000000  0.0000000  0.0000000 )
                  (  0.0000000  0.0000000 -1.0000000 )
                  (  0.0000000 -1.0000000  0.0000000 )


      isym = 38     inv. 180 deg rotation - cart. axis [0,1,-1]  

 cryst.   s(38) = (     0          1          0      )
                  (     1          0          0      )
                  (     0          0          1      )

 cart.    s(38) = (  1.0000000  0.0000000  0.0000000 )
                  (  0.0000000  0.0000000  1.0000000 )
                  (  0.0000000  1.0000000  0.0000000 )


      isym = 39     inv.  90 deg rotation - cart. axis [-1,0,0]  

 cryst.   s(39) = (    -1          0          1      )
                  (    -1          0          0      )
                  (    -1          1          0      )

 cart.    s(39) = ( -1.0000000  0.0000000  0.0000000 )
                  (  0.0000000  0.0000000 -1.0000000 )
                  (  0.0000000  1.0000000  0.0000000 )


      isym = 40     inv.  90 deg rotation - cart. axis [1,0,0]   

 cryst.   s(40) = (     0         -1          0      )
                  (     0         -1          1      )
                  (     1         -1          0      )

 cart.    s(40) = ( -1.0000000  0.0000000  0.0000000 )
                  (  0.0000000  0.0000000  1.0000000 )
                  (  0.0000000 -1.0000000  0.0000000 )


      isym = 41     inv. 120 deg rotation - cart. axis [-1,-1,-1]

 cryst.   s(41) = (     0         -1          0      )    f =( -0.2500000 )
                  (     0          0         -1      )       ( -0.2500000 )
                  (    -1          0          0      )       ( -0.2500000 )

 cart.    s(41) = (  0.0000000 -1.0000000  0.0000000 )    f =( -0.3535534 )
                  (  0.0000000  0.0000000 -1.0000000 )       ( -0.3535534 )
                  ( -1.0000000  0.0000000  0.0000000 )       ( -0.3535534 )


      isym = 42     inv. 120 deg rotation - cart. axis [-1,1,1]  

 cryst.   s(42) = (     0          1          0      )    f =( -0.2500000 )
                  (    -1          1          0      )       ( -0.2500000 )
                  (     0          1         -1      )       ( -0.2500000 )

 cart.    s(42) = (  0.0000000  1.0000000  0.0000000 )    f =( -0.3535534 )
                  (  0.0000000  0.0000000 -1.0000000 )       ( -0.3535534 )
                  (  1.0000000  0.0000000  0.0000000 )       ( -0.3535534 )


      isym = 43     inv. 120 deg rotation - cart. axis [1,1,-1]  

 cryst.   s(43) = (    -1          0          1      )    f =( -0.2500000 )
                  (     0          0          1      )       ( -0.2500000 )
                  (     0         -1          1      )       ( -0.2500000 )

 cart.    s(43) = (  0.0000000 -1.0000000  0.0000000 )    f =( -0.3535534 )
                  (  0.0000000  0.0000000  1.0000000 )       ( -0.3535534 )
                  (  1.0000000  0.0000000  0.0000000 )       ( -0.3535534 )


      isym = 44     inv. 120 deg rotation - cart. axis [1,-1,1]  

 cryst.   s(44) = (     1          0         -1      )    f =( -0.2500000 )
                  (     1         -1          0      )       ( -0.2500000 )
                  (     1          0          0      )       ( -0.2500000 )

 cart.    s(44) = (  0.0000000  1.0000000  0.0000000 )    f =( -0.3535534 )
                  (  0.0000000  0.0000000  1.0000000 )       ( -0.3535534 )
                  ( -1.0000000  0.0000000  0.0000000 )       ( -0.3535534 )


      isym = 45     inv. 120 deg rotation - cart. axis [1,1,1]   

 cryst.   s(45) = (     0          0         -1      )    f =( -0.2500000 )
                  (    -1          0          0      )       ( -0.2500000 )
                  (     0         -1          0      )       ( -0.2500000 )

 cart.    s(45) = (  0.0000000  0.0000000 -1.0000000 )    f =( -0.3535534 )
                  ( -1.0000000  0.0000000  0.0000000 )       ( -0.3535534 )
                  (  0.0000000 -1.0000000  0.0000000 )       ( -0.3535534 )


      isym = 46     inv. 120 deg rotation - cart. axis [-1,1,-1] 

 cryst.   s(46) = (     0          0          1      )    f =( -0.2500000 )
                  (     0         -1          1      )       ( -0.2500000 )
                  (    -1          0          1      )       ( -0.2500000 )

 cart.    s(46) = (  0.0000000  0.0000000 -1.0000000 )    f =( -0.3535534 )
                  (  1.0000000  0.0000000  0.0000000 )       ( -0.3535534 )
                  (  0.0000000  1.0000000  0.0000000 )       ( -0.3535534 )


      isym = 47     inv. 120 deg rotation - cart. axis [1,-1,-1] 

 cryst.   s(47) = (     1         -1          0      )    f =( -0.2500000 )
                  (     1          0          0      )       ( -0.2500000 )
                  (     1          0         -1      )       ( -0.2500000 )

 cart.    s(47) = (  0.0000000  0.0000000  1.0000000 )    f =( -0.3535534 )
                  (  1.0000000  0.0000000  0.0000000 )       ( -0.3535534 )
                  (  0.0000000 -1.0000000  0.0000000 )       ( -0.3535534 )


      isym = 48     inv. 120 deg rotation - cart. axis [-1,-1,1] 

 cryst.   s(48) = (    -1          1          0      )    f =( -0.2500000 )
                  (     0          1         -1      )       ( -0.2500000 )
                  (     0          1          0      )       ( -0.2500000 )

 cart.    s(48) = (  0.0000000  0.0000000  1.0000000 )    f =( -0.3535534 )
                  ( -1.0000000  0.0000000  0.0000000 )       ( -0.3535534 )
                  (  0.0000000  1.0000000  0.0000000 )       ( -0.3535534 )


   Cartesian axes

     site n.     atom                  positions (alat units)
         1           Si  tau(   1) = (   0.0000000   0.0000000   0.0000000  )
         2           Si  tau(   2) = (   0.3535534   0.3535534   0.3535534  )

   Crystallographic axes

     site n.     atom                  positions (cryst. coord.)
         1           Si  tau(   1) = (  0.0000000  0.0000000  0.0000000  )
         2           Si  tau(   2) = (  0.2500000  0.2500000  0.2500000  )

     number of k points=    29
                       cart. coord. in units 2pi/alat
        k(    1) = (   0.0000000   0.0000000   0.0000000), wk =   0.0039062
        k(    2) = (  -0.0883883   0.0883883   0.0883883), wk =   0.0312500
        k(    3) = (  -0.1767767   0.1767767   0.1767767), wk =   0.0312500
        k(    4) = (  -0.2651650   0.2651650   0.2651650), wk =   0.0312500
        k(    5) = (   0.3535534  -0.3535534  -0.3535534), wk =   0.0156250
        k(    6) = (   0.0000000   0.0000000   0.1767767), wk =   0.0234375
        k(    7) = (  -0.0883883   0.0883883   0.2651650), wk =   0.0937500
        k(    8) = (  -0.1767767   0.1767767   0.3535534), wk =   0.0937500
        k(    9) = (   0.4419417  -0.4419417  -0.2651650), wk =   0.0937500
        k(   10) = (   0.3535534  -0.3535534  -0.1767767), wk =   0.0937500
        k(   11) = (   0.2651650  -0.2651650  -0.0883883), wk =   0.0937500
        k(   12) = (   0.1767767  -0.1767767   0.0000000), wk =   0.0468750
        k(   13) = (   0.0000000   0.0000000   0.3535534), wk =   0.0234375
        k(   14) = (  -0.0883883   0.0883883   0.4419417), wk =   0.0937500
        k(   15) = (   0.5303301  -0.5303301  -0.1767767), wk =   0.0937500
        k(   16) = (   0.4419417  -0.4419417  -0.0883883), wk =   0.0937500
        k(   17) = (   0.3535534  -0.3535534   0.0000000), wk =   0.0468750
        k(   18) = (   0.0000000   0.0000000   0.5303301), wk =   0.0234375
        k(   19) = (   0.6187184  -0.6187184  -0.0883883), wk =   0.0937500
        k(   20) = (   0.5303301  -0.5303301   0.0000000), wk =   0.0468750
        k(   21) = (   0.0000000   0.0000000  -0.7071068), wk =   0.0117188
        k(   22) = (   0.0000000   0.1767767   0.3535534), wk =   0.0937500
        k(   23) = (   0.6187184  -0.4419417  -0.2651650), wk =   0.1875000
        k(   24) = (   0.5303301  -0.3535534  -0.1767767), wk =   0.0937500
        k(   25) = (   0.7071068  -0.5303301  -0.1767767), wk =   0.0937500
        k(   26) = (   0.6187184  -0.4419417  -0.0883883), wk =   0.1875000
        k(   27) = (   0.5303301  -0.3535534   0.0000000), wk =   0.0937500
        k(   28) = (   0.0000000   0.1767767  -0.7071068), wk =   0.0468750
        k(   29) = (   0.0000000   0.3535534  -0.7071068), wk =   0.0234375

                       cryst. coord.
        k(    1) = (   0.0000000   0.0000000   0.0000000), wk =   0.0039062
        k(    2) = (   0.0000000   0.0000000   0.1250000), wk =   0.0312500
        k(    3) = (   0.0000000   0.0000000   0.2500000), wk =   0.0312500
        k(    4) = (   0.0000000   0.0000000   0.3750000), wk =   0.0312500
        k(    5) = (   0.0000000   0.0000000  -0.5000000), wk =   0.0156250
        k(    6) = (   0.0000000   0.1250000   0.1250000), wk =   0.0234375
        k(    7) = (   0.0000000   0.1250000   0.2500000), wk =   0.0937500
        k(    8) = (   0.0000000   0.1250000   0.3750000), wk =   0.0937500
        k(    9) = (   0.0000000   0.1250000  -0.5000000), wk =   0.0937500
        k(   10) = (   0.0000000   0.1250000  -0.3750000), wk =   0.0937500
        k(   11) = (   0.0000000   0.1250000  -0.2500000), wk =   0.0937500
        k(   12) = (   0.0000000   0.1250000  -0.1250000), wk =   0.0468750
        k(   13) = (   0.0000000   0.2500000   0.2500000), wk =   0.0234375
        k(   14) = (   0.0000000   0.2500000   0.3750000), wk =   0.0937500
        k(   15) = (   0.0000000   0.2500000  -0.5000000), wk =   0.0937500
        k(   16) = (   0.0000000   0.2500000  -0.3750000), wk =   0.0937500
        k(   17) = (   0.0000000   0.2500000  -0.2500000), wk =   0.0468750
        k(   18) = (   0.0000000   0.3750000   0.3750000), wk =   0.0234375
        k(   19) = (   0.0000000   0.3750000  -0.5000000), wk =   0.0937500
        k(   20) = (   0.0000000   0.3750000  -0.3750000), wk =   0.0468750
        k(   21) = (   0.0000000  -0.5000000  -0.5000000), wk =   0.0117188
        k(   22) = (   0.1250000   0.2500000   0.3750000), wk =   0.0937500
        k(   23) = (   0.1250000   0.2500000  -0.5000000), wk =   0.1875000
        k(   24) = (   0.1250000   0.2500000  -0.3750000), wk =   0.0937500
        k(   25) = (   0.1250000   0.3750000  -0.5000000), wk =   0.0937500
        k(   26) = (   0.1250000   0.3750000  -0.3750000), wk =   0.1875000
        k(   27) = (   0.1250000   0.3750000  -0.2500000), wk =   0.0937500
        k(   28) = (   0.1250000  -0.5000000  -0.3750000), wk =   0.0468750
        k(   29) = (   0.2500000  -0.5000000  -0.2500000), wk =   0.0234375

     Dense  grid:    16529 G-vectors     FFT dimensions: (  36,  36,  36)

     Smooth grid:     5817 G-vectors     FFT dimensions: (  32,  32,  32)

     Dynamical RAM for                 wfc:       0.04 MB

     Dynamical RAM for     wfc (w. buffer):       1.33 MB

     Dynamical RAM for           str. fact:       0.25 MB

     Dynamical RAM for           local pot:       0.00 MB

     Dynamical RAM for          nlocal pot:       0.40 MB

     Dynamical RAM for                qrad:       1.24 MB

     Dynamical RAM for          rho,v,vnew:       1.82 MB

     Dynamical RAM for               rhoin:       0.61 MB

     Dynamical RAM for            rho*nmix:       4.04 MB

     Dynamical RAM for           G-vectors:       0.99 MB

     Dynamical RAM for          h,s,v(r/c):       0.00 MB

     Dynamical RAM for          <psi|beta>:       0.00 MB

     Dynamical RAM for                 psi:       0.09 MB

     Dynamical RAM for                hpsi:       0.09 MB

     Dynamical RAM for                spsi:       0.09 MB

     Dynamical RAM for      wfcinit/wfcrot:       0.18 MB

     Dynamical RAM for           addusdens:      47.42 MB

     Estimated static dynamical RAM per process >       8.94 MB

     Estimated max dynamical RAM per process >      60.39 MB

     Initial potential from superposition of free atoms

     starting charge    7.99888, renormalised to    8.00000
     Starting wfcs are    8 randomized atomic wfcs

     total cpu time spent up to now is        0.7 secs

     Self-consistent Calculation

     iteration #  1     ecut=    30.00 Ry     beta= 0.40
     Davidson diagonalization with overlap

---- Real-time Memory Report at c_bands before calling an iterative solver
            86 MiB given to the printing process from OS
             0 MiB allocation reported by mallinfo(arena+hblkhd)
          2178 MiB available memory on the node where the printing process lives
------------------
     ethr =  1.00E-02,  avg # of iterations =  2.0

     Threshold (ethr) on eigenvalues was too large:
     Diagonalizing with lowered threshold

     Davidson diagonalization with overlap

---- Real-time Memory Report at c_bands before calling an iterative solver
            88 MiB given to the printing process from OS
             0 MiB allocation reported by mallinfo(arena+hblkhd)
          2200 MiB available memory on the node where the printing process lives
------------------
     ethr =  6.54E-04,  avg # of iterations =  1.4

     total cpu time spent up to now is        1.5 secs

     total energy              =     -22.83895324 Ry
     estimated scf accuracy    <       0.05650388 Ry

     iteration #  2     ecut=    30.00 Ry     beta= 0.40
     Davidson diagonalization with overlap

---- Real-time Memory Report at c_bands before calling an iterative solver
            92 MiB given to the printing process from OS
             0 MiB allocation reported by mallinfo(arena+hblkhd)
          2085 MiB available memory on the node where the printing process lives
------------------
     ethr =  7.06E-04,  avg # of iterations =  1.0

     total cpu time spent up to now is        1.9 secs

     total energy              =     -22.83581949 Ry
     estimated scf accuracy    <       0.01764310 Ry

     iteration #  3     ecut=    30.00 Ry     beta= 0.40
     Davidson diagonalization with overlap

---- Real-time Memory Report at c_bands before calling an iterative solver
            92 MiB given to the printing process from OS
             0 MiB allocation reported by mallinfo(arena+hblkhd)
          2107 MiB available memory on the node where the printing process lives
------------------
     ethr =  2.21E-04,  avg # of iterations =  1.9

     total cpu time spent up to now is        2.4 secs

     total energy              =     -22.83743125 Ry
     estimated scf accuracy    <       0.00032621 Ry

     iteration #  4     ecut=    30.00 Ry     beta= 0.40
     Davidson diagonalization with overlap

---- Real-time Memory Report at c_bands before calling an iterative solver
            92 MiB given to the printing process from OS
             0 MiB allocation reported by mallinfo(arena+hblkhd)
          1942 MiB available memory on the node where the printing process lives
------------------
     ethr =  4.08E-06,  avg # of iterations =  3.9

     total cpu time spent up to now is        3.0 secs

     total energy              =     -22.83759277 Ry
     estimated scf accuracy    <       0.00023795 Ry

     iteration #  5     ecut=    30.00 Ry     beta= 0.40
     Davidson diagonalization with overlap

---- Real-time Memory Report at c_bands before calling an iterative solver
            92 MiB given to the printing process from OS
             0 MiB allocation reported by mallinfo(arena+hblkhd)
          2181 MiB available memory on the node where the printing process lives
------------------
     ethr =  2.97E-06,  avg # of iterations =  1.9

     total cpu time spent up to now is        3.4 secs

     total energy              =     -22.83761695 Ry
     estimated scf accuracy    <       0.00000030 Ry

     iteration #  6     ecut=    30.00 Ry     beta= 0.40
     Davidson diagonalization with overlap

---- Real-time Memory Report at c_bands before calling an iterative solver
            92 MiB given to the printing process from OS
             0 MiB allocation reported by mallinfo(arena+hblkhd)
          2181 MiB available memory on the node where the printing process lives
------------------
     ethr =  3.79E-09,  avg # of iterations =  9.3

     total cpu time spent up to now is        4.2 secs

     total energy              =     -22.83762417 Ry
     estimated scf accuracy    <       0.00000162 Ry

     iteration #  7     ecut=    30.00 Ry     beta= 0.40
     Davidson diagonalization with overlap

---- Real-time Memory Report at c_bands before calling an iterative solver
            92 MiB given to the printing process from OS
             0 MiB allocation reported by mallinfo(arena+hblkhd)
          2164 MiB available memory on the node where the printing process lives
------------------
     ethr =  3.79E-09,  avg # of iterations =  2.1

     total cpu time spent up to now is        4.6 secs

     total energy              =     -22.83763040 Ry
     estimated scf accuracy    <       0.00000540 Ry

     iteration #  8     ecut=    30.00 Ry     beta= 0.40
     Davidson diagonalization with overlap

---- Real-time Memory Report at c_bands before calling an iterative solver
            92 MiB given to the printing process from OS
             0 MiB allocation reported by mallinfo(arena+hblkhd)
          2164 MiB available memory on the node where the printing process lives
------------------
     ethr =  3.79E-09,  avg # of iterations =  3.8

     total cpu time spent up to now is        5.0 secs

     total energy              =     -22.83782233 Ry
     estimated scf accuracy    <       0.00002583 Ry

     iteration #  9     ecut=    30.00 Ry     beta= 0.40
     Davidson diagonalization with overlap

---- Real-time Memory Report at c_bands before calling an iterative solver
            92 MiB given to the printing process from OS
             0 MiB allocation reported by mallinfo(arena+hblkhd)
          2161 MiB available memory on the node where the printing process lives
------------------
     ethr =  3.79E-09,  avg # of iterations =  8.3

     total cpu time spent up to now is        5.8 secs

     total energy              =     -22.83756476 Ry
     estimated scf accuracy    <       0.00071248 Ry

     iteration # 10     ecut=    30.00 Ry     beta= 0.40
     Davidson diagonalization with overlap

---- Real-time Memory Report at c_bands before calling an iterative solver
            92 MiB given to the printing process from OS
             0 MiB allocation reported by mallinfo(arena+hblkhd)
          2176 MiB available memory on the node where the printing process lives
------------------
     ethr =  3.79E-09,  avg # of iterations =  8.6

     total cpu time spent up to now is        6.6 secs

     total energy              =     -22.83762241 Ry
     estimated scf accuracy    <       0.00000091 Ry

     iteration # 11     ecut=    30.00 Ry     beta= 0.40
     Davidson diagonalization with overlap

---- Real-time Memory Report at c_bands before calling an iterative solver
            92 MiB given to the printing process from OS
             0 MiB allocation reported by mallinfo(arena+hblkhd)
          2017 MiB available memory on the node where the printing process lives
------------------
     ethr =  3.79E-09,  avg # of iterations =  1.1

     total cpu time spent up to now is        6.9 secs

     total energy              =     -22.83762230 Ry
     estimated scf accuracy    <       0.00000041 Ry

     iteration # 12     ecut=    30.00 Ry     beta= 0.40
     Davidson diagonalization with overlap

---- Real-time Memory Report at c_bands before calling an iterative solver
            92 MiB given to the printing process from OS
             0 MiB allocation reported by mallinfo(arena+hblkhd)
          2142 MiB available memory on the node where the printing process lives
------------------
     ethr =  3.79E-09,  avg # of iterations =  1.2

     total cpu time spent up to now is        7.3 secs

     total energy              =     -22.83762228 Ry
     estimated scf accuracy    <       0.00000007 Ry

     iteration # 13     ecut=    30.00 Ry     beta= 0.40
     Davidson diagonalization with overlap

---- Real-time Memory Report at c_bands before calling an iterative solver
            92 MiB given to the printing process from OS
             0 MiB allocation reported by mallinfo(arena+hblkhd)
          2121 MiB available memory on the node where the printing process lives
------------------
     ethr =  9.13E-10,  avg # of iterations =  3.4

     total cpu time spent up to now is        7.7 secs

     total energy              =     -22.83762230 Ry
     estimated scf accuracy    <       0.00000003 Ry

     iteration # 14     ecut=    30.00 Ry     beta= 0.40
     Davidson diagonalization with overlap

---- Real-time Memory Report at c_bands before calling an iterative solver
            92 MiB given to the printing process from OS
             0 MiB allocation reported by mallinfo(arena+hblkhd)
          2122 MiB available memory on the node where the printing process lives
------------------
     ethr =  3.63E-10,  avg # of iterations =  1.2

     total cpu time spent up to now is        8.1 secs

     total energy              =     -22.83762230 Ry
     estimated scf accuracy    <          4.0E-09 Ry

     iteration # 15     ecut=    30.00 Ry     beta= 0.40
     Davidson diagonalization with overlap

---- Real-time Memory Report at c_bands before calling an iterative solver
            92 MiB given to the printing process from OS
             0 MiB allocation reported by mallinfo(arena+hblkhd)
          2033 MiB available memory on the node where the printing process lives
------------------
     ethr =  5.03E-11,  avg # of iterations =  2.5

     total cpu time spent up to now is        8.4 secs

     End of self-consistent calculation

          k = 0.0000 0.0000 0.0000 (   725 PWs)   bands (ev):

    -5.6584   6.4964   6.4964   6.4964

     occupation numbers 
     1.0000   1.0000   1.0000   1.0000

          k =-0.0884 0.0884 0.0884 (   727 PWs)   bands (ev):

    -5.4494   4.8859   6.1988   6.1988

     occupation numbers 
     1.0000   1.0000   1.0000   1.0000

          k =-0.1768 0.1768 0.1768 (   733 PWs)   bands (ev):

    -4.8391   2.5145   5.7177   5.7177

     occupation numbers 
     1.0000   1.0000   1.0000   1.0000

          k =-0.2652 0.2652 0.2652 (   745 PWs)   bands (ev):

    -3.9199   0.4473   5.3852   5.3852

     occupation numbers 
     1.0000   1.0000   1.0000   1.0000

          k = 0.3536-0.3536-0.3536 (   718 PWs)   bands (ev):

    -3.2568  -0.6079   5.2719   5.2719

     occupation numbers 
     1.0000   1.0000   1.0000   1.0000

          k = 0.0000 0.0000 0.1768 (   729 PWs)   bands (ev):

    -5.3790   5.1862   5.6631   5.6631

     occupation numbers 
     1.0000   1.0000   1.0000   1.0000

          k =-0.0884 0.0884 0.2652 (   726 PWs)   bands (ev):

    -4.8990   3.2466   5.1390   5.2328

     occupation numbers 
     1.0000   1.0000   1.0000   1.0000

          k =-0.1768 0.1768 0.3536 (   736 PWs)   bands (ev):

    -4.0624   1.1352   4.6303   4.8669

     occupation numbers 
     1.0000   1.0000   1.0000   1.0000

          k = 0.4419-0.4419-0.2652 (   732 PWs)   bands (ev):

    -3.1708  -0.3722   4.1730   4.8949

     occupation numbers 
     1.0000   1.0000   1.0000   1.0000

          k = 0.3536-0.3536-0.1768 (   735 PWs)   bands (ev):

    -3.4252   0.0111   3.9825   5.2011

     occupation numbers 
     1.0000   1.0000   1.0000   1.0000

          k = 0.2652-0.2652-0.0884 (   735 PWs)   bands (ev):

    -4.3771   1.8115   4.1286   5.7066

     occupation numbers 
     1.0000   1.0000   1.0000   1.0000

          k = 0.1768-0.1768 0.0000 (   737 PWs)   bands (ev):

    -5.1051   3.7990   4.8163   6.2001

     occupation numbers 
     1.0000   1.0000   1.0000   1.0000

          k = 0.0000 0.0000 0.3536 (   729 PWs)   bands (ev):

    -4.5508   2.9815   4.5526   4.5526

     occupation numbers 
     1.0000   1.0000   1.0000   1.0000

          k =-0.0884 0.0884 0.4419 (   728 PWs)   bands (ev):

    -3.8229   1.5219   3.7530   4.2278

     occupation numbers 
     1.0000   1.0000   1.0000   1.0000

          k = 0.5303-0.5303-0.1768 (   724 PWs)   bands (ev):

    -2.8687   0.0348   2.8694   4.2326

     occupation numbers 
     1.0000   1.0000   1.0000   1.0000

          k = 0.4419-0.4419-0.0884 (   726 PWs)   bands (ev):

    -2.6548  -0.2352   2.3961   4.5607

     occupation numbers 
     1.0000   1.0000   1.0000   1.0000

          k = 0.3536-0.3536 0.0000 (   742 PWs)   bands (ev):

    -3.5621   0.9619   2.6347   5.1356

     occupation numbers 
     1.0000   1.0000   1.0000   1.0000

          k = 0.0000 0.0000 0.5303 (   733 PWs)   bands (ev):

    -3.2065   0.7079   3.8197   3.8197

     occupation numbers 
     1.0000   1.0000   1.0000   1.0000

          k = 0.6187-0.6187-0.0884 (   731 PWs)   bands (ev):

    -2.2853  -0.4016   2.9592   3.7423

     occupation numbers 
     1.0000   1.0000   1.0000   1.0000

          k = 0.5303-0.5303 0.0000 (   724 PWs)   bands (ev):

    -1.8254  -0.8135   2.0615   4.0070

     occupation numbers 
     1.0000   1.0000   1.0000   1.0000

          k = 0.0000 0.0000-0.7071 (   740 PWs)   bands (ev):

    -1.4136  -1.4136   3.5686   3.5686

     occupation numbers 
     1.0000   1.0000   1.0000   1.0000

          k = 0.0000 0.1768 0.3536 (   733 PWs)   bands (ev):

    -4.2966   2.1785   3.7040   5.0334

     occupation numbers 
     1.0000   1.0000   1.0000   1.0000

          k = 0.6187-0.4419-0.2652 (   732 PWs)   bands (ev):

    -3.3833   0.5832   3.0917   4.5129

     occupation numbers 
     1.0000   1.0000   1.0000   1.0000

          k = 0.5303-0.3536-0.1768 (   722 PWs)   bands (ev):

    -2.7063  -0.3962   2.9665   4.2742

     occupation numbers 
     1.0000   1.0000   1.0000   1.0000

          k = 0.7071-0.5303-0.1768 (   728 PWs)   bands (ev):

    -3.0008   0.4842   3.0373   3.6544

     occupation numbers 
     1.0000   1.0000   1.0000   1.0000

          k = 0.6187-0.4419-0.0884 (   723 PWs)   bands (ev):

    -2.0976  -0.5099   2.3152   3.4474

     occupation numbers 
     1.0000   1.0000   1.0000   1.0000

          k = 0.5303-0.3536 0.0000 (   726 PWs)   bands (ev):

    -2.4576  -0.1395   2.1423   3.8359

     occupation numbers 
     1.0000   1.0000   1.0000   1.0000

          k = 0.0000 0.1768-0.7071 (   730 PWs)   bands (ev):

    -1.3298  -1.3298   2.9784   2.9784

     occupation numbers 
     1.0000   1.0000   1.0000   1.0000

          k = 0.0000 0.3536-0.7071 (   724 PWs)   bands (ev):

    -1.2369  -1.2369   2.5235   2.5235

     occupation numbers 
     1.0000   1.0000   1.0000   1.0000

     highest occupied level (ev):     6.4964

!    total energy              =     -22.83762230 Ry
     estimated scf accuracy    <          2.3E-11 Ry

     The total energy is the sum of the following terms:
     one-electron contribution =       5.38036172 Ry
     hartree contribution      =       1.07715405 Ry
     xc contribution           =     -12.34322124 Ry
     ewald contribution        =     -16.95191684 Ry

     convergence has been achieved in  15 iterations

     Writing output data file ./si.save/

     init_run     :      0.63s CPU      0.65s WALL (       1 calls)
     electrons    :      7.09s CPU      7.68s WALL (       1 calls)

     Called by init_run:
     wfcinit      :      0.20s CPU      0.20s WALL (       1 calls)
     wfcinit:atom :      0.00s CPU      0.00s WALL (      29 calls)
     wfcinit:wfcr :      0.17s CPU      0.17s WALL (      29 calls)
     potinit      :      0.04s CPU      0.04s WALL (       1 calls)
     hinit0       :      0.33s CPU      0.33s WALL (       1 calls)

     Called by electrons:
     c_bands      :      4.76s CPU      4.81s WALL (      16 calls)
     sum_band     :      1.22s CPU      1.53s WALL (      16 calls)
     v_of_rho     :      0.40s CPU      0.41s WALL (      16 calls)
     v_h          :      0.02s CPU      0.02s WALL (      16 calls)
     v_xc         :      0.38s CPU      0.39s WALL (      16 calls)
     newd         :      0.71s CPU      0.94s WALL (      16 calls)
     mix_rho      :      0.05s CPU      0.05s WALL (      16 calls)

     Called by c_bands:
     init_us_2    :      0.22s CPU      0.22s WALL (     957 calls)
     cegterg      :      4.27s CPU      4.30s WALL (     464 calls)

     Called by sum_band:
     sum_band:wei :      0.00s CPU      0.00s WALL (      16 calls)
     sum_band:loo :      0.55s CPU      0.56s WALL (      16 calls)
     sum_band:buf :      0.00s CPU      0.00s WALL (     464 calls)
     sum_band:ini :      0.10s CPU      0.10s WALL (     464 calls)
     sum_band:cal :      0.10s CPU      0.10s WALL (     464 calls)
     sum_band:bec :      0.00s CPU      0.00s WALL (     464 calls)
     addusdens    :      0.61s CPU      0.91s WALL (      16 calls)
     addusd:skk   :      0.00s CPU      0.00s WALL (      16 calls)
     addusd:dgemm :      0.19s CPU      0.46s WALL (      16 calls)
     addusd:qvan2 :      0.30s CPU      0.30s WALL (      16 calls)

     Called by *egterg:
     cdiaghg      :      0.07s CPU      0.07s WALL (    1989 calls)
     cegterg:over :      0.12s CPU      0.12s WALL (    1554 calls)
     cegterg:upda :      0.07s CPU      0.07s WALL (    1554 calls)
     cegterg:last :      0.17s CPU      0.17s WALL (    1395 calls)
     h_psi        :      3.48s CPU      3.50s WALL (    2047 calls)
     s_psi        :      0.43s CPU      0.43s WALL (    2047 calls)
     g_psi        :      0.02s CPU      0.02s WALL (    1554 calls)

     Called by h_psi:
     h_psi:calbec :      0.40s CPU      0.40s WALL (    2047 calls)
     vloc_psi     :      2.63s CPU      2.65s WALL (    2047 calls)
     add_vuspsi   :      0.43s CPU      0.43s WALL (    2047 calls)

     General routines
     calbec       :      0.50s CPU      0.50s WALL (    2511 calls)
     fft          :      0.24s CPU      0.24s WALL (     207 calls)
     ffts         :      0.01s CPU      0.01s WALL (      32 calls)
     fftw         :      2.46s CPU      2.48s WALL (   15858 calls)
     interpolate  :      0.02s CPU      0.02s WALL (      16 calls)

     Parallel routines

     PWSCF        :      7.82s CPU      8.43s WALL


   This run was terminated on:  16:56:57  11May2023            

=------------------------------------------------------------------------------=
   JOB DONE.
=------------------------------------------------------------------------------=
