
     Program PWSCF v.6.8 starts on 12May2023 at 10:47:43 

     This program is part of the open-source Quantum ESPRESSO suite
     for quantum simulation of materials; please cite
         "P. Giannozzi et al., J. Phys.:Condens. Matter 21 395502 (2009);
         "P. Giannozzi et al., J. Phys.:Condens. Matter 29 465901 (2017);
         "P. Giannozzi et al., J. Chem. Phys. 152 154105 (2020);
          URL http://www.quantum-espresso.org", 
     in publications or presentations arising from this work. More details at
     http://www.quantum-espresso.org/quote

     Parallel version (MPI), running on     1 processors

     MPI processes distributed on     1 nodes
     1946 MiB available memory on the printing compute node when the environment starts

     Reading input from kgrid_10.in

     Current dimensions of program PWSCF are:
     Max number of different atomic species (ntypx) = 10
     Max number of k-points (npk) =  40000
     Max angular momentum in pseudopotentials (lmaxx) =  4
     Message from routine volume:
     axis vectors are left-handed
     Message from routine setup:
     using ibrav=0 with symmetry is DISCOURAGED, use correct ibrav instead

     Subspace diagonalization in iterative solution of the eigenvalue problem:
     a serial algorithm will be used


     G-vector sticks info
     --------------------
     sticks:   dense  smooth     PW     G-vecs:    dense   smooth      PW
     Sum         847     433    139                16529     5817    1067

     Using Slab Decomposition



     bravais-lattice index     =            0
     lattice parameter (alat)  =       7.1903  a.u.
     unit-cell volume          =     262.8607 (a.u.)^3
     number of atoms/cell      =            2
     number of atomic types    =            1
     number of electrons       =         8.00
     number of Kohn-Sham states=            4
     kinetic-energy cutoff     =      30.0000  Ry
     charge density cutoff     =     240.0000  Ry
     scf convergence threshold =      4.0E-10
     mixing beta               =       0.4000
     number of iterations used =            8  plain     mixing
     Exchange-correlation= PBE
                           (   1   4   3   4   0   0   0)

     celldm(1)=   7.190298  celldm(2)=   0.000000  celldm(3)=   0.000000
     celldm(4)=   0.000000  celldm(5)=   0.000000  celldm(6)=   0.000000

     crystal axes: (cart. coord. in units of alat)
               a(1) = (   0.707107   0.707107   0.000000 )  
               a(2) = (   0.707107   0.000000   0.707107 )  
               a(3) = (   0.000000   0.707107   0.707107 )  

     reciprocal axes: (cart. coord. in units 2 pi/alat)
               b(1) = (  0.707107  0.707107 -0.707107 )  
               b(2) = (  0.707107 -0.707107  0.707107 )  
               b(3) = ( -0.707107  0.707107  0.707107 )  


     PseudoPot. # 1 for Si read from file:
     ./pseudo/Si.pbe-n-rrkjus_psl.1.0.0.UPF
     MD5 check sum: 0b0bb1205258b0d07b9f9672cf965d36
     Pseudo is Ultrasoft + core correction, Zval =  4.0
     Generated using "atomic" code by A. Dal Corso  v.5.1
     Using radial grid of 1141 points,  6 beta functions with: 
                l(1) =   0
                l(2) =   0
                l(3) =   1
                l(4) =   1
                l(5) =   2
                l(6) =   2
     Q(r) pseudized with 0 coefficients 


     atomic species   valence    mass     pseudopotential
        Si             4.00    28.08550     Si( 1.00)

     48 Sym. Ops., with inversion, found (24 have fractional translation)


                                    s                        frac. trans.

      isym =  1     identity                                     

 cryst.   s( 1) = (     1          0          0      )
                  (     0          1          0      )
                  (     0          0          1      )

 cart.    s( 1) = (  1.0000000  0.0000000  0.0000000 )
                  (  0.0000000  1.0000000  0.0000000 )
                  (  0.0000000  0.0000000  1.0000000 )


      isym =  2     180 deg rotation - cart. axis [0,0,1]        

 cryst.   s( 2) = (    -1          0          0      )
                  (    -1          0          1      )
                  (    -1          1          0      )

 cart.    s( 2) = ( -1.0000000  0.0000000  0.0000000 )
                  (  0.0000000 -1.0000000  0.0000000 )
                  (  0.0000000  0.0000000  1.0000000 )


      isym =  3     180 deg rotation - cart. axis [0,1,0]        

 cryst.   s( 3) = (     0         -1          1      )
                  (     0         -1          0      )
                  (     1         -1          0      )

 cart.    s( 3) = ( -1.0000000  0.0000000  0.0000000 )
                  (  0.0000000  1.0000000  0.0000000 )
                  (  0.0000000  0.0000000 -1.0000000 )


      isym =  4     180 deg rotation - cart. axis [1,0,0]        

 cryst.   s( 4) = (     0          1         -1      )
                  (     1          0         -1      )
                  (     0          0         -1      )

 cart.    s( 4) = (  1.0000000  0.0000000  0.0000000 )
                  (  0.0000000 -1.0000000  0.0000000 )
                  (  0.0000000  0.0000000 -1.0000000 )


      isym =  5     180 deg rotation - cart. axis [1,1,0]        

 cryst.   s( 5) = (     1          0          0      )    f =( -0.2500000 )
                  (     1         -1          0      )       ( -0.2500000 )
                  (     1          0         -1      )       ( -0.2500000 )

 cart.    s( 5) = (  0.0000000  1.0000000  0.0000000 )    f =( -0.3535534 )
                  (  1.0000000  0.0000000  0.0000000 )       ( -0.3535534 )
                  (  0.0000000  0.0000000 -1.0000000 )       ( -0.3535534 )


      isym =  6     180 deg rotation - cart. axis [1,-1,0]       

 cryst.   s( 6) = (    -1          0          0      )    f =( -0.2500000 )
                  (     0          0         -1      )       ( -0.2500000 )
                  (     0         -1          0      )       ( -0.2500000 )

 cart.    s( 6) = (  0.0000000 -1.0000000  0.0000000 )    f =( -0.3535534 )
                  ( -1.0000000  0.0000000  0.0000000 )       ( -0.3535534 )
                  (  0.0000000  0.0000000 -1.0000000 )       ( -0.3535534 )


      isym =  7      90 deg rotation - cart. axis [0,0,-1]       

 cryst.   s( 7) = (     0          1         -1      )    f =( -0.2500000 )
                  (    -1          1          0      )       ( -0.2500000 )
                  (     0          1          0      )       ( -0.2500000 )

 cart.    s( 7) = (  0.0000000  1.0000000  0.0000000 )    f =( -0.3535534 )
                  ( -1.0000000  0.0000000  0.0000000 )       ( -0.3535534 )
                  (  0.0000000  0.0000000  1.0000000 )       ( -0.3535534 )


      isym =  8      90 deg rotation - cart. axis [0,0,1]        

 cryst.   s( 8) = (     0         -1          1      )    f =( -0.2500000 )
                  (     0          0          1      )       ( -0.2500000 )
                  (    -1          0          1      )       ( -0.2500000 )

 cart.    s( 8) = (  0.0000000 -1.0000000  0.0000000 )    f =( -0.3535534 )
                  (  1.0000000  0.0000000  0.0000000 )       ( -0.3535534 )
                  (  0.0000000  0.0000000  1.0000000 )       ( -0.3535534 )


      isym =  9     180 deg rotation - cart. axis [1,0,1]        

 cryst.   s( 9) = (    -1          1          0      )    f =( -0.2500000 )
                  (     0          1          0      )       ( -0.2500000 )
                  (     0          1         -1      )       ( -0.2500000 )

 cart.    s( 9) = (  0.0000000  0.0000000  1.0000000 )    f =( -0.3535534 )
                  (  0.0000000 -1.0000000  0.0000000 )       ( -0.3535534 )
                  (  1.0000000  0.0000000  0.0000000 )       ( -0.3535534 )


      isym = 10     180 deg rotation - cart. axis [-1,0,1]       

 cryst.   s(10) = (     0          0         -1      )    f =( -0.2500000 )
                  (     0         -1          0      )       ( -0.2500000 )
                  (    -1          0          0      )       ( -0.2500000 )

 cart.    s(10) = (  0.0000000  0.0000000 -1.0000000 )    f =( -0.3535534 )
                  (  0.0000000 -1.0000000  0.0000000 )       ( -0.3535534 )
                  ( -1.0000000  0.0000000  0.0000000 )       ( -0.3535534 )


      isym = 11      90 deg rotation - cart. axis [0,1,0]        

 cryst.   s(11) = (     1         -1          0      )    f =( -0.2500000 )
                  (     1          0         -1      )       ( -0.2500000 )
                  (     1          0          0      )       ( -0.2500000 )

 cart.    s(11) = (  0.0000000  0.0000000  1.0000000 )    f =( -0.3535534 )
                  (  0.0000000  1.0000000  0.0000000 )       ( -0.3535534 )
                  ( -1.0000000  0.0000000  0.0000000 )       ( -0.3535534 )


      isym = 12      90 deg rotation - cart. axis [0,-1,0]       

 cryst.   s(12) = (     0          0          1      )    f =( -0.2500000 )
                  (    -1          0          1      )       ( -0.2500000 )
                  (     0         -1          1      )       ( -0.2500000 )

 cart.    s(12) = (  0.0000000  0.0000000 -1.0000000 )    f =( -0.3535534 )
                  (  0.0000000  1.0000000  0.0000000 )       ( -0.3535534 )
                  (  1.0000000  0.0000000  0.0000000 )       ( -0.3535534 )


      isym = 13     180 deg rotation - cart. axis [0,1,1]        

 cryst.   s(13) = (    -1          0          1      )    f =( -0.2500000 )
                  (     0         -1          1      )       ( -0.2500000 )
                  (     0          0          1      )       ( -0.2500000 )

 cart.    s(13) = ( -1.0000000  0.0000000  0.0000000 )    f =( -0.3535534 )
                  (  0.0000000  0.0000000  1.0000000 )       ( -0.3535534 )
                  (  0.0000000  1.0000000  0.0000000 )       ( -0.3535534 )


      isym = 14     180 deg rotation - cart. axis [0,1,-1]       

 cryst.   s(14) = (     0         -1          0      )    f =( -0.2500000 )
                  (    -1          0          0      )       ( -0.2500000 )
                  (     0          0         -1      )       ( -0.2500000 )

 cart.    s(14) = ( -1.0000000  0.0000000  0.0000000 )    f =( -0.3535534 )
                  (  0.0000000  0.0000000 -1.0000000 )       ( -0.3535534 )
                  (  0.0000000 -1.0000000  0.0000000 )       ( -0.3535534 )


      isym = 15      90 deg rotation - cart. axis [-1,0,0]       

 cryst.   s(15) = (     1          0         -1      )    f =( -0.2500000 )
                  (     1          0          0      )       ( -0.2500000 )
                  (     1         -1          0      )       ( -0.2500000 )

 cart.    s(15) = (  1.0000000  0.0000000  0.0000000 )    f =( -0.3535534 )
                  (  0.0000000  0.0000000  1.0000000 )       ( -0.3535534 )
                  (  0.0000000 -1.0000000  0.0000000 )       ( -0.3535534 )


      isym = 16      90 deg rotation - cart. axis [1,0,0]        

 cryst.   s(16) = (     0          1          0      )    f =( -0.2500000 )
                  (     0          1         -1      )       ( -0.2500000 )
                  (    -1          1          0      )       ( -0.2500000 )

 cart.    s(16) = (  1.0000000  0.0000000  0.0000000 )    f =( -0.3535534 )
                  (  0.0000000  0.0000000 -1.0000000 )       ( -0.3535534 )
                  (  0.0000000  1.0000000  0.0000000 )       ( -0.3535534 )


      isym = 17     120 deg rotation - cart. axis [-1,-1,-1]     

 cryst.   s(17) = (     0          1          0      )
                  (     0          0          1      )
                  (     1          0          0      )

 cart.    s(17) = (  0.0000000  1.0000000  0.0000000 )
                  (  0.0000000  0.0000000  1.0000000 )
                  (  1.0000000  0.0000000  0.0000000 )


      isym = 18     120 deg rotation - cart. axis [-1,1,1]       

 cryst.   s(18) = (     0         -1          0      )
                  (     1         -1          0      )
                  (     0         -1          1      )

 cart.    s(18) = (  0.0000000 -1.0000000  0.0000000 )
                  (  0.0000000  0.0000000  1.0000000 )
                  ( -1.0000000  0.0000000  0.0000000 )


      isym = 19     120 deg rotation - cart. axis [1,1,-1]       

 cryst.   s(19) = (     1          0         -1      )
                  (     0          0         -1      )
                  (     0          1         -1      )

 cart.    s(19) = (  0.0000000  1.0000000  0.0000000 )
                  (  0.0000000  0.0000000 -1.0000000 )
                  ( -1.0000000  0.0000000  0.0000000 )


      isym = 20     120 deg rotation - cart. axis [1,-1,1]       

 cryst.   s(20) = (    -1          0          1      )
                  (    -1          1          0      )
                  (    -1          0          0      )

 cart.    s(20) = (  0.0000000 -1.0000000  0.0000000 )
                  (  0.0000000  0.0000000 -1.0000000 )
                  (  1.0000000  0.0000000  0.0000000 )


      isym = 21     120 deg rotation - cart. axis [1,1,1]        

 cryst.   s(21) = (     0          0          1      )
                  (     1          0          0      )
                  (     0          1          0      )

 cart.    s(21) = (  0.0000000  0.0000000  1.0000000 )
                  (  1.0000000  0.0000000  0.0000000 )
                  (  0.0000000  1.0000000  0.0000000 )


      isym = 22     120 deg rotation - cart. axis [-1,1,-1]      

 cryst.   s(22) = (     0          0         -1      )
                  (     0          1         -1      )
                  (     1          0         -1      )

 cart.    s(22) = (  0.0000000  0.0000000  1.0000000 )
                  ( -1.0000000  0.0000000  0.0000000 )
                  (  0.0000000 -1.0000000  0.0000000 )


      isym = 23     120 deg rotation - cart. axis [1,-1,-1]      

 cryst.   s(23) = (    -1          1          0      )
                  (    -1          0          0      )
                  (    -1          0          1      )

 cart.    s(23) = (  0.0000000  0.0000000 -1.0000000 )
                  ( -1.0000000  0.0000000  0.0000000 )
                  (  0.0000000  1.0000000  0.0000000 )


      isym = 24     120 deg rotation - cart. axis [-1,-1,1]      

 cryst.   s(24) = (     1         -1          0      )
                  (     0         -1          1      )
                  (     0         -1          0      )

 cart.    s(24) = (  0.0000000  0.0000000 -1.0000000 )
                  (  1.0000000  0.0000000  0.0000000 )
                  (  0.0000000 -1.0000000  0.0000000 )


      isym = 25     inversion                                    

 cryst.   s(25) = (    -1          0          0      )    f =( -0.2500000 )
                  (     0         -1          0      )       ( -0.2500000 )
                  (     0          0         -1      )       ( -0.2500000 )

 cart.    s(25) = ( -1.0000000  0.0000000  0.0000000 )    f =( -0.3535534 )
                  (  0.0000000 -1.0000000  0.0000000 )       ( -0.3535534 )
                  (  0.0000000  0.0000000 -1.0000000 )       ( -0.3535534 )


      isym = 26     inv. 180 deg rotation - cart. axis [0,0,1]   

 cryst.   s(26) = (     1          0          0      )    f =( -0.2500000 )
                  (     1          0         -1      )       ( -0.2500000 )
                  (     1         -1          0      )       ( -0.2500000 )

 cart.    s(26) = (  1.0000000  0.0000000  0.0000000 )    f =( -0.3535534 )
                  (  0.0000000  1.0000000  0.0000000 )       ( -0.3535534 )
                  (  0.0000000  0.0000000 -1.0000000 )       ( -0.3535534 )


      isym = 27     inv. 180 deg rotation - cart. axis [0,1,0]   

 cryst.   s(27) = (     0          1         -1      )    f =( -0.2500000 )
                  (     0          1          0      )       ( -0.2500000 )
                  (    -1          1          0      )       ( -0.2500000 )

 cart.    s(27) = (  1.0000000  0.0000000  0.0000000 )    f =( -0.3535534 )
                  (  0.0000000 -1.0000000  0.0000000 )       ( -0.3535534 )
                  (  0.0000000  0.0000000  1.0000000 )       ( -0.3535534 )


      isym = 28     inv. 180 deg rotation - cart. axis [1,0,0]   

 cryst.   s(28) = (     0         -1          1      )    f =( -0.2500000 )
                  (    -1          0          1      )       ( -0.2500000 )
                  (     0          0          1      )       ( -0.2500000 )

 cart.    s(28) = ( -1.0000000  0.0000000  0.0000000 )    f =( -0.3535534 )
                  (  0.0000000  1.0000000  0.0000000 )       ( -0.3535534 )
                  (  0.0000000  0.0000000  1.0000000 )       ( -0.3535534 )


      isym = 29     inv. 180 deg rotation - cart. axis [1,1,0]   

 cryst.   s(29) = (    -1          0          0      )
                  (    -1          1          0      )
                  (    -1          0          1      )

 cart.    s(29) = (  0.0000000 -1.0000000  0.0000000 )
                  ( -1.0000000  0.0000000  0.0000000 )
                  (  0.0000000  0.0000000  1.0000000 )


      isym = 30     inv. 180 deg rotation - cart. axis [1,-1,0]  

 cryst.   s(30) = (     1          0          0      )
                  (     0          0          1      )
                  (     0          1          0      )

 cart.    s(30) = (  0.0000000  1.0000000  0.0000000 )
                  (  1.0000000  0.0000000  0.0000000 )
                  (  0.0000000  0.0000000  1.0000000 )


      isym = 31     inv.  90 deg rotation - cart. axis [0,0,-1]  

 cryst.   s(31) = (     0         -1          1      )
                  (     1         -1          0      )
                  (     0         -1          0      )

 cart.    s(31) = (  0.0000000 -1.0000000  0.0000000 )
                  (  1.0000000  0.0000000  0.0000000 )
                  (  0.0000000  0.0000000 -1.0000000 )


      isym = 32     inv.  90 deg rotation - cart. axis [0,0,1]   

 cryst.   s(32) = (     0          1         -1      )
                  (     0          0         -1      )
                  (     1          0         -1      )

 cart.    s(32) = (  0.0000000  1.0000000  0.0000000 )
                  ( -1.0000000  0.0000000  0.0000000 )
                  (  0.0000000  0.0000000 -1.0000000 )


      isym = 33     inv. 180 deg rotation - cart. axis [1,0,1]   

 cryst.   s(33) = (     1         -1          0      )
                  (     0         -1          0      )
                  (     0         -1          1      )

 cart.    s(33) = (  0.0000000  0.0000000 -1.0000000 )
                  (  0.0000000  1.0000000  0.0000000 )
                  ( -1.0000000  0.0000000  0.0000000 )


      isym = 34     inv. 180 deg rotation - cart. axis [-1,0,1]  

 cryst.   s(34) = (     0          0          1      )
                  (     0          1          0      )
                  (     1          0          0      )

 cart.    s(34) = (  0.0000000  0.0000000  1.0000000 )
                  (  0.0000000  1.0000000  0.0000000 )
                  (  1.0000000  0.0000000  0.0000000 )


      isym = 35     inv.  90 deg rotation - cart. axis [0,1,0]   

 cryst.   s(35) = (    -1          1          0      )
                  (    -1          0          1      )
                  (    -1          0          0      )

 cart.    s(35) = (  0.0000000  0.0000000 -1.0000000 )
                  (  0.0000000 -1.0000000  0.0000000 )
                  (  1.0000000  0.0000000  0.0000000 )


      isym = 36     inv.  90 deg rotation - cart. axis [0,-1,0]  

 cryst.   s(36) = (     0          0         -1      )
                  (     1          0         -1      )
                  (     0          1         -1      )

 cart.    s(36) = (  0.0000000  0.0000000  1.0000000 )
                  (  0.0000000 -1.0000000  0.0000000 )
                  ( -1.0000000  0.0000000  0.0000000 )


      isym = 37     inv. 180 deg rotation - cart. axis [0,1,1]   

 cryst.   s(37) = (     1          0         -1      )
                  (     0          1         -1      )
                  (     0          0         -1      )

 cart.    s(37) = (  1.0000000  0.0000000  0.0000000 )
                  (  0.0000000  0.0000000 -1.0000000 )
                  (  0.0000000 -1.0000000  0.0000000 )


      isym = 38     inv. 180 deg rotation - cart. axis [0,1,-1]  

 cryst.   s(38) = (     0          1          0      )
                  (     1          0          0      )
                  (     0          0          1      )

 cart.    s(38) = (  1.0000000  0.0000000  0.0000000 )
                  (  0.0000000  0.0000000  1.0000000 )
                  (  0.0000000  1.0000000  0.0000000 )


      isym = 39     inv.  90 deg rotation - cart. axis [-1,0,0]  

 cryst.   s(39) = (    -1          0          1      )
                  (    -1          0          0      )
                  (    -1          1          0      )

 cart.    s(39) = ( -1.0000000  0.0000000  0.0000000 )
                  (  0.0000000  0.0000000 -1.0000000 )
                  (  0.0000000  1.0000000  0.0000000 )


      isym = 40     inv.  90 deg rotation - cart. axis [1,0,0]   

 cryst.   s(40) = (     0         -1          0      )
                  (     0         -1          1      )
                  (     1         -1          0      )

 cart.    s(40) = ( -1.0000000  0.0000000  0.0000000 )
                  (  0.0000000  0.0000000  1.0000000 )
                  (  0.0000000 -1.0000000  0.0000000 )


      isym = 41     inv. 120 deg rotation - cart. axis [-1,-1,-1]

 cryst.   s(41) = (     0         -1          0      )    f =( -0.2500000 )
                  (     0          0         -1      )       ( -0.2500000 )
                  (    -1          0          0      )       ( -0.2500000 )

 cart.    s(41) = (  0.0000000 -1.0000000  0.0000000 )    f =( -0.3535534 )
                  (  0.0000000  0.0000000 -1.0000000 )       ( -0.3535534 )
                  ( -1.0000000  0.0000000  0.0000000 )       ( -0.3535534 )


      isym = 42     inv. 120 deg rotation - cart. axis [-1,1,1]  

 cryst.   s(42) = (     0          1          0      )    f =( -0.2500000 )
                  (    -1          1          0      )       ( -0.2500000 )
                  (     0          1         -1      )       ( -0.2500000 )

 cart.    s(42) = (  0.0000000  1.0000000  0.0000000 )    f =( -0.3535534 )
                  (  0.0000000  0.0000000 -1.0000000 )       ( -0.3535534 )
                  (  1.0000000  0.0000000  0.0000000 )       ( -0.3535534 )


      isym = 43     inv. 120 deg rotation - cart. axis [1,1,-1]  

 cryst.   s(43) = (    -1          0          1      )    f =( -0.2500000 )
                  (     0          0          1      )       ( -0.2500000 )
                  (     0         -1          1      )       ( -0.2500000 )

 cart.    s(43) = (  0.0000000 -1.0000000  0.0000000 )    f =( -0.3535534 )
                  (  0.0000000  0.0000000  1.0000000 )       ( -0.3535534 )
                  (  1.0000000  0.0000000  0.0000000 )       ( -0.3535534 )


      isym = 44     inv. 120 deg rotation - cart. axis [1,-1,1]  

 cryst.   s(44) = (     1          0         -1      )    f =( -0.2500000 )
                  (     1         -1          0      )       ( -0.2500000 )
                  (     1          0          0      )       ( -0.2500000 )

 cart.    s(44) = (  0.0000000  1.0000000  0.0000000 )    f =( -0.3535534 )
                  (  0.0000000  0.0000000  1.0000000 )       ( -0.3535534 )
                  ( -1.0000000  0.0000000  0.0000000 )       ( -0.3535534 )


      isym = 45     inv. 120 deg rotation - cart. axis [1,1,1]   

 cryst.   s(45) = (     0          0         -1      )    f =( -0.2500000 )
                  (    -1          0          0      )       ( -0.2500000 )
                  (     0         -1          0      )       ( -0.2500000 )

 cart.    s(45) = (  0.0000000  0.0000000 -1.0000000 )    f =( -0.3535534 )
                  ( -1.0000000  0.0000000  0.0000000 )       ( -0.3535534 )
                  (  0.0000000 -1.0000000  0.0000000 )       ( -0.3535534 )


      isym = 46     inv. 120 deg rotation - cart. axis [-1,1,-1] 

 cryst.   s(46) = (     0          0          1      )    f =( -0.2500000 )
                  (     0         -1          1      )       ( -0.2500000 )
                  (    -1          0          1      )       ( -0.2500000 )

 cart.    s(46) = (  0.0000000  0.0000000 -1.0000000 )    f =( -0.3535534 )
                  (  1.0000000  0.0000000  0.0000000 )       ( -0.3535534 )
                  (  0.0000000  1.0000000  0.0000000 )       ( -0.3535534 )


      isym = 47     inv. 120 deg rotation - cart. axis [1,-1,-1] 

 cryst.   s(47) = (     1         -1          0      )    f =( -0.2500000 )
                  (     1          0          0      )       ( -0.2500000 )
                  (     1          0         -1      )       ( -0.2500000 )

 cart.    s(47) = (  0.0000000  0.0000000  1.0000000 )    f =( -0.3535534 )
                  (  1.0000000  0.0000000  0.0000000 )       ( -0.3535534 )
                  (  0.0000000 -1.0000000  0.0000000 )       ( -0.3535534 )


      isym = 48     inv. 120 deg rotation - cart. axis [-1,-1,1] 

 cryst.   s(48) = (    -1          1          0      )    f =( -0.2500000 )
                  (     0          1         -1      )       ( -0.2500000 )
                  (     0          1          0      )       ( -0.2500000 )

 cart.    s(48) = (  0.0000000  0.0000000  1.0000000 )    f =( -0.3535534 )
                  ( -1.0000000  0.0000000  0.0000000 )       ( -0.3535534 )
                  (  0.0000000  1.0000000  0.0000000 )       ( -0.3535534 )


   Cartesian axes

     site n.     atom                  positions (alat units)
         1           Si  tau(   1) = (   0.0000000   0.0000000   0.0000000  )
         2           Si  tau(   2) = (   0.3535534   0.3535534   0.3535534  )

   Crystallographic axes

     site n.     atom                  positions (cryst. coord.)
         1           Si  tau(   1) = (  0.0000000  0.0000000  0.0000000  )
         2           Si  tau(   2) = (  0.2500000  0.2500000  0.2500000  )

     number of k points=    47
                       cart. coord. in units 2pi/alat
        k(    1) = (   0.0000000   0.0000000   0.0000000), wk =   0.0020000
        k(    2) = (  -0.0707107   0.0707107   0.0707107), wk =   0.0160000
        k(    3) = (  -0.1414214   0.1414214   0.1414214), wk =   0.0160000
        k(    4) = (  -0.2121320   0.2121320   0.2121320), wk =   0.0160000
        k(    5) = (  -0.2828427   0.2828427   0.2828427), wk =   0.0160000
        k(    6) = (   0.3535534  -0.3535534  -0.3535534), wk =   0.0080000
        k(    7) = (   0.0000000   0.0000000   0.1414214), wk =   0.0120000
        k(    8) = (  -0.0707107   0.0707107   0.2121320), wk =   0.0480000
        k(    9) = (  -0.1414214   0.1414214   0.2828427), wk =   0.0480000
        k(   10) = (  -0.2121320   0.2121320   0.3535534), wk =   0.0480000
        k(   11) = (   0.4242641  -0.4242641  -0.2828427), wk =   0.0480000
        k(   12) = (   0.3535534  -0.3535534  -0.2121320), wk =   0.0480000
        k(   13) = (   0.2828427  -0.2828427  -0.1414214), wk =   0.0480000
        k(   14) = (   0.2121320  -0.2121320  -0.0707107), wk =   0.0480000
        k(   15) = (   0.1414214  -0.1414214   0.0000000), wk =   0.0240000
        k(   16) = (   0.0000000   0.0000000   0.2828427), wk =   0.0120000
        k(   17) = (  -0.0707107   0.0707107   0.3535534), wk =   0.0480000
        k(   18) = (  -0.1414214   0.1414214   0.4242641), wk =   0.0480000
        k(   19) = (   0.4949747  -0.4949747  -0.2121320), wk =   0.0480000
        k(   20) = (   0.4242641  -0.4242641  -0.1414214), wk =   0.0480000
        k(   21) = (   0.3535534  -0.3535534  -0.0707107), wk =   0.0480000
        k(   22) = (   0.2828427  -0.2828427   0.0000000), wk =   0.0240000
        k(   23) = (   0.0000000   0.0000000   0.4242641), wk =   0.0120000
        k(   24) = (  -0.0707107   0.0707107   0.4949747), wk =   0.0480000
        k(   25) = (   0.5656854  -0.5656854  -0.1414214), wk =   0.0480000
        k(   26) = (   0.4949747  -0.4949747  -0.0707107), wk =   0.0480000
        k(   27) = (   0.4242641  -0.4242641  -0.0000000), wk =   0.0240000
        k(   28) = (   0.0000000   0.0000000   0.5656854), wk =   0.0120000
        k(   29) = (   0.6363961  -0.6363961  -0.0707107), wk =   0.0480000
        k(   30) = (   0.5656854  -0.5656854   0.0000000), wk =   0.0240000
        k(   31) = (   0.0000000   0.0000000  -0.7071068), wk =   0.0060000
        k(   32) = (   0.0000000   0.1414214   0.2828427), wk =   0.0480000
        k(   33) = (  -0.0707107   0.2121320   0.3535534), wk =   0.0960000
        k(   34) = (   0.5656854  -0.4242641  -0.2828427), wk =   0.0960000
        k(   35) = (   0.4949747  -0.3535534  -0.2121320), wk =   0.0480000
        k(   36) = (  -0.0000000   0.1414214   0.4242641), wk =   0.0480000
        k(   37) = (   0.6363961  -0.4949747  -0.2121320), wk =   0.0960000
        k(   38) = (   0.5656854  -0.4242641  -0.1414214), wk =   0.0960000
        k(   39) = (   0.4949747  -0.3535534  -0.0707107), wk =   0.0960000
        k(   40) = (   0.4242641  -0.2828427   0.0000000), wk =   0.0480000
        k(   41) = (   0.7071068  -0.5656854  -0.1414214), wk =   0.0480000
        k(   42) = (   0.6363961  -0.4949747  -0.0707107), wk =   0.0960000
        k(   43) = (   0.5656854  -0.4242641  -0.0000000), wk =   0.0480000
        k(   44) = (   0.0000000   0.1414214  -0.7071068), wk =   0.0240000
        k(   45) = (   0.7071068  -0.4242641  -0.1414214), wk =   0.0480000
        k(   46) = (   0.6363961  -0.3535534  -0.0707107), wk =   0.0480000
        k(   47) = (   0.0000000   0.2828427  -0.7071068), wk =   0.0240000

                       cryst. coord.
        k(    1) = (   0.0000000   0.0000000   0.0000000), wk =   0.0020000
        k(    2) = (   0.0000000   0.0000000   0.1000000), wk =   0.0160000
        k(    3) = (   0.0000000   0.0000000   0.2000000), wk =   0.0160000
        k(    4) = (   0.0000000   0.0000000   0.3000000), wk =   0.0160000
        k(    5) = (   0.0000000   0.0000000   0.4000000), wk =   0.0160000
        k(    6) = (   0.0000000   0.0000000  -0.5000000), wk =   0.0080000
        k(    7) = (   0.0000000   0.1000000   0.1000000), wk =   0.0120000
        k(    8) = (   0.0000000   0.1000000   0.2000000), wk =   0.0480000
        k(    9) = (   0.0000000   0.1000000   0.3000000), wk =   0.0480000
        k(   10) = (   0.0000000   0.1000000   0.4000000), wk =   0.0480000
        k(   11) = (   0.0000000   0.1000000  -0.5000000), wk =   0.0480000
        k(   12) = (   0.0000000   0.1000000  -0.4000000), wk =   0.0480000
        k(   13) = (   0.0000000   0.1000000  -0.3000000), wk =   0.0480000
        k(   14) = (   0.0000000   0.1000000  -0.2000000), wk =   0.0480000
        k(   15) = (   0.0000000   0.1000000  -0.1000000), wk =   0.0240000
        k(   16) = (   0.0000000   0.2000000   0.2000000), wk =   0.0120000
        k(   17) = (   0.0000000   0.2000000   0.3000000), wk =   0.0480000
        k(   18) = (   0.0000000   0.2000000   0.4000000), wk =   0.0480000
        k(   19) = (   0.0000000   0.2000000  -0.5000000), wk =   0.0480000
        k(   20) = (   0.0000000   0.2000000  -0.4000000), wk =   0.0480000
        k(   21) = (   0.0000000   0.2000000  -0.3000000), wk =   0.0480000
        k(   22) = (   0.0000000   0.2000000  -0.2000000), wk =   0.0240000
        k(   23) = (   0.0000000   0.3000000   0.3000000), wk =   0.0120000
        k(   24) = (   0.0000000   0.3000000   0.4000000), wk =   0.0480000
        k(   25) = (   0.0000000   0.3000000  -0.5000000), wk =   0.0480000
        k(   26) = (   0.0000000   0.3000000  -0.4000000), wk =   0.0480000
        k(   27) = (   0.0000000   0.3000000  -0.3000000), wk =   0.0240000
        k(   28) = (   0.0000000   0.4000000   0.4000000), wk =   0.0120000
        k(   29) = (   0.0000000   0.4000000  -0.5000000), wk =   0.0480000
        k(   30) = (   0.0000000   0.4000000  -0.4000000), wk =   0.0240000
        k(   31) = (   0.0000000  -0.5000000  -0.5000000), wk =   0.0060000
        k(   32) = (   0.1000000   0.2000000   0.3000000), wk =   0.0480000
        k(   33) = (   0.1000000   0.2000000   0.4000000), wk =   0.0960000
        k(   34) = (   0.1000000   0.2000000  -0.5000000), wk =   0.0960000
        k(   35) = (   0.1000000   0.2000000  -0.4000000), wk =   0.0480000
        k(   36) = (   0.1000000   0.3000000   0.4000000), wk =   0.0480000
        k(   37) = (   0.1000000   0.3000000  -0.5000000), wk =   0.0960000
        k(   38) = (   0.1000000   0.3000000  -0.4000000), wk =   0.0960000
        k(   39) = (   0.1000000   0.3000000  -0.3000000), wk =   0.0960000
        k(   40) = (   0.1000000   0.3000000  -0.2000000), wk =   0.0480000
        k(   41) = (   0.1000000   0.4000000  -0.5000000), wk =   0.0480000
        k(   42) = (   0.1000000   0.4000000  -0.4000000), wk =   0.0960000
        k(   43) = (   0.1000000   0.4000000  -0.3000000), wk =   0.0480000
        k(   44) = (   0.1000000  -0.5000000  -0.4000000), wk =   0.0240000
        k(   45) = (   0.2000000   0.4000000  -0.4000000), wk =   0.0480000
        k(   46) = (   0.2000000   0.4000000  -0.3000000), wk =   0.0480000
        k(   47) = (   0.2000000  -0.5000000  -0.3000000), wk =   0.0240000

     Dense  grid:    16529 G-vectors     FFT dimensions: (  36,  36,  36)

     Smooth grid:     5817 G-vectors     FFT dimensions: (  32,  32,  32)

     Dynamical RAM for                 wfc:       0.04 MB

     Dynamical RAM for     wfc (w. buffer):       2.14 MB

     Dynamical RAM for           str. fact:       0.25 MB

     Dynamical RAM for           local pot:       0.00 MB

     Dynamical RAM for          nlocal pot:       0.40 MB

     Dynamical RAM for                qrad:       1.24 MB

     Dynamical RAM for          rho,v,vnew:       1.82 MB

     Dynamical RAM for               rhoin:       0.61 MB

     Dynamical RAM for            rho*nmix:       4.04 MB

     Dynamical RAM for           G-vectors:       0.99 MB

     Dynamical RAM for          h,s,v(r/c):       0.00 MB

     Dynamical RAM for          <psi|beta>:       0.00 MB

     Dynamical RAM for                 psi:       0.09 MB

     Dynamical RAM for                hpsi:       0.09 MB

     Dynamical RAM for                spsi:       0.09 MB

     Dynamical RAM for      wfcinit/wfcrot:       0.18 MB

     Dynamical RAM for           addusdens:      47.42 MB

     Estimated static dynamical RAM per process >       9.74 MB

     Estimated max dynamical RAM per process >      61.19 MB

     Initial potential from superposition of free atoms

     starting charge    7.99888, renormalised to    8.00000
     Starting wfcs are    8 randomized atomic wfcs

     total cpu time spent up to now is        0.8 secs

     Self-consistent Calculation

     iteration #  1     ecut=    30.00 Ry     beta= 0.40
     Davidson diagonalization with overlap

---- Real-time Memory Report at c_bands before calling an iterative solver
            84 MiB given to the printing process from OS
             0 MiB allocation reported by mallinfo(arena+hblkhd)
          1929 MiB available memory on the node where the printing process lives
------------------
     ethr =  1.00E-02,  avg # of iterations =  2.0

     Threshold (ethr) on eigenvalues was too large:
     Diagonalizing with lowered threshold

     Davidson diagonalization with overlap

---- Real-time Memory Report at c_bands before calling an iterative solver
            89 MiB given to the printing process from OS
             0 MiB allocation reported by mallinfo(arena+hblkhd)
          1924 MiB available memory on the node where the printing process lives
------------------
     ethr =  6.51E-04,  avg # of iterations =  1.4

     total cpu time spent up to now is        1.6 secs

     total energy              =     -22.83912776 Ry
     estimated scf accuracy    <       0.05638233 Ry

     iteration #  2     ecut=    30.00 Ry     beta= 0.40
     Davidson diagonalization with overlap

---- Real-time Memory Report at c_bands before calling an iterative solver
            91 MiB given to the printing process from OS
             0 MiB allocation reported by mallinfo(arena+hblkhd)
          1922 MiB available memory on the node where the printing process lives
------------------
     ethr =  7.05E-04,  avg # of iterations =  1.0

     total cpu time spent up to now is        1.9 secs

     total energy              =     -22.83603810 Ry
     estimated scf accuracy    <       0.01757195 Ry

     iteration #  3     ecut=    30.00 Ry     beta= 0.40
     Davidson diagonalization with overlap

---- Real-time Memory Report at c_bands before calling an iterative solver
            91 MiB given to the printing process from OS
             0 MiB allocation reported by mallinfo(arena+hblkhd)
          1921 MiB available memory on the node where the printing process lives
------------------
     ethr =  2.20E-04,  avg # of iterations =  1.9

     total cpu time spent up to now is        2.3 secs

     total energy              =     -22.83764158 Ry
     estimated scf accuracy    <       0.00031930 Ry

     iteration #  4     ecut=    30.00 Ry     beta= 0.40
     Davidson diagonalization with overlap

---- Real-time Memory Report at c_bands before calling an iterative solver
            91 MiB given to the printing process from OS
             0 MiB allocation reported by mallinfo(arena+hblkhd)
          1921 MiB available memory on the node where the printing process lives
------------------
     ethr =  3.99E-06,  avg # of iterations =  3.9

     total cpu time spent up to now is        2.9 secs

     total energy              =     -22.83783284 Ry
     estimated scf accuracy    <       0.00020397 Ry

     iteration #  5     ecut=    30.00 Ry     beta= 0.40
     Davidson diagonalization with overlap

---- Real-time Memory Report at c_bands before calling an iterative solver
            92 MiB given to the printing process from OS
             0 MiB allocation reported by mallinfo(arena+hblkhd)
          1920 MiB available memory on the node where the printing process lives
------------------
     ethr =  2.55E-06,  avg # of iterations =  1.9

     total cpu time spent up to now is        3.2 secs

     total energy              =     -22.83785416 Ry
     estimated scf accuracy    <       0.00000027 Ry

     iteration #  6     ecut=    30.00 Ry     beta= 0.40
     Davidson diagonalization with overlap

---- Real-time Memory Report at c_bands before calling an iterative solver
            92 MiB given to the printing process from OS
             0 MiB allocation reported by mallinfo(arena+hblkhd)
          1920 MiB available memory on the node where the printing process lives
------------------
     ethr =  3.35E-09,  avg # of iterations =  9.4

     total cpu time spent up to now is        4.2 secs

     total energy              =     -22.83786009 Ry
     estimated scf accuracy    <       0.00000199 Ry

     iteration #  7     ecut=    30.00 Ry     beta= 0.40
     Davidson diagonalization with overlap

---- Real-time Memory Report at c_bands before calling an iterative solver
            92 MiB given to the printing process from OS
             0 MiB allocation reported by mallinfo(arena+hblkhd)
          1920 MiB available memory on the node where the printing process lives
------------------
     ethr =  3.35E-09,  avg # of iterations =  2.0

     total cpu time spent up to now is        4.6 secs

     total energy              =     -22.83785919 Ry
     estimated scf accuracy    <       0.00000379 Ry

     iteration #  8     ecut=    30.00 Ry     beta= 0.40
     Davidson diagonalization with overlap

---- Real-time Memory Report at c_bands before calling an iterative solver
            92 MiB given to the printing process from OS
             0 MiB allocation reported by mallinfo(arena+hblkhd)
          1919 MiB available memory on the node where the printing process lives
------------------
     ethr =  3.35E-09,  avg # of iterations =  2.0

     total cpu time spent up to now is        5.1 secs

     total energy              =     -22.83785918 Ry
     estimated scf accuracy    <       0.00000155 Ry

     iteration #  9     ecut=    30.00 Ry     beta= 0.40
     Davidson diagonalization with overlap

---- Real-time Memory Report at c_bands before calling an iterative solver
            92 MiB given to the printing process from OS
             0 MiB allocation reported by mallinfo(arena+hblkhd)
          1919 MiB available memory on the node where the printing process lives
------------------
     ethr =  3.35E-09,  avg # of iterations =  1.0

     total cpu time spent up to now is        5.5 secs

     total energy              =     -22.83785922 Ry
     estimated scf accuracy    <       0.00000134 Ry

     iteration # 10     ecut=    30.00 Ry     beta= 0.40
     Davidson diagonalization with overlap

---- Real-time Memory Report at c_bands before calling an iterative solver
            93 MiB given to the printing process from OS
             0 MiB allocation reported by mallinfo(arena+hblkhd)
          1919 MiB available memory on the node where the printing process lives
------------------
     ethr =  3.35E-09,  avg # of iterations =  1.0

     total cpu time spent up to now is        5.9 secs

     total energy              =     -22.83785931 Ry
     estimated scf accuracy    <       0.00000145 Ry

     iteration # 11     ecut=    30.00 Ry     beta= 0.40
     Davidson diagonalization with overlap

---- Real-time Memory Report at c_bands before calling an iterative solver
            93 MiB given to the printing process from OS
             0 MiB allocation reported by mallinfo(arena+hblkhd)
          1919 MiB available memory on the node where the printing process lives
------------------
     ethr =  3.35E-09,  avg # of iterations =  1.0

     total cpu time spent up to now is        6.3 secs

     total energy              =     -22.83785889 Ry
     estimated scf accuracy    <       0.00000170 Ry

     iteration # 12     ecut=    30.00 Ry     beta= 0.40
     Davidson diagonalization with overlap

---- Real-time Memory Report at c_bands before calling an iterative solver
            93 MiB given to the printing process from OS
             0 MiB allocation reported by mallinfo(arena+hblkhd)
          1919 MiB available memory on the node where the printing process lives
------------------
     ethr =  3.35E-09,  avg # of iterations =  1.9

     total cpu time spent up to now is        6.7 secs

     total energy              =     -22.83785893 Ry
     estimated scf accuracy    <       0.00000055 Ry

     iteration # 13     ecut=    30.00 Ry     beta= 0.40
     Davidson diagonalization with overlap

---- Real-time Memory Report at c_bands before calling an iterative solver
            93 MiB given to the printing process from OS
             0 MiB allocation reported by mallinfo(arena+hblkhd)
          1919 MiB available memory on the node where the printing process lives
------------------
     ethr =  3.35E-09,  avg # of iterations =  1.0

     total cpu time spent up to now is        7.0 secs

     total energy              =     -22.83785881 Ry
     estimated scf accuracy    <       0.00000058 Ry

     iteration # 14     ecut=    30.00 Ry     beta= 0.40
     Davidson diagonalization with overlap

---- Real-time Memory Report at c_bands before calling an iterative solver
            93 MiB given to the printing process from OS
             0 MiB allocation reported by mallinfo(arena+hblkhd)
          1919 MiB available memory on the node where the printing process lives
------------------
     ethr =  3.35E-09,  avg # of iterations =  1.0

     total cpu time spent up to now is        7.4 secs

     total energy              =     -22.83785873 Ry
     estimated scf accuracy    <       0.00000023 Ry

     iteration # 15     ecut=    30.00 Ry     beta= 0.40
     Davidson diagonalization with overlap

---- Real-time Memory Report at c_bands before calling an iterative solver
            93 MiB given to the printing process from OS
             0 MiB allocation reported by mallinfo(arena+hblkhd)
          1919 MiB available memory on the node where the printing process lives
------------------
     ethr =  2.93E-09,  avg # of iterations =  1.0

     total cpu time spent up to now is        7.8 secs

     total energy              =     -22.83785874 Ry
     estimated scf accuracy    <          9.1E-09 Ry

     iteration # 16     ecut=    30.00 Ry     beta= 0.40
     Davidson diagonalization with overlap

---- Real-time Memory Report at c_bands before calling an iterative solver
            93 MiB given to the printing process from OS
             0 MiB allocation reported by mallinfo(arena+hblkhd)
          1919 MiB available memory on the node where the printing process lives
------------------
     ethr =  1.14E-10,  avg # of iterations =  4.6

     total cpu time spent up to now is        8.4 secs

     total energy              =     -22.83785874 Ry
     estimated scf accuracy    <          8.5E-10 Ry

     iteration # 17     ecut=    30.00 Ry     beta= 0.40
     Davidson diagonalization with overlap

---- Real-time Memory Report at c_bands before calling an iterative solver
            93 MiB given to the printing process from OS
             0 MiB allocation reported by mallinfo(arena+hblkhd)
          1919 MiB available memory on the node where the printing process lives
------------------
     ethr =  1.07E-11,  avg # of iterations =  2.7

     total cpu time spent up to now is        8.8 secs

     total energy              =     -22.83785874 Ry
     estimated scf accuracy    <          3.6E-09 Ry

     iteration # 18     ecut=    30.00 Ry     beta= 0.40
     Davidson diagonalization with overlap

---- Real-time Memory Report at c_bands before calling an iterative solver
            93 MiB given to the printing process from OS
             0 MiB allocation reported by mallinfo(arena+hblkhd)
          1919 MiB available memory on the node where the printing process lives
------------------
     ethr =  1.07E-11,  avg # of iterations =  1.0

     total cpu time spent up to now is        9.2 secs

     total energy              =     -22.83785874 Ry
     estimated scf accuracy    <          5.0E-09 Ry

     iteration # 19     ecut=    30.00 Ry     beta= 0.40
     Davidson diagonalization with overlap

---- Real-time Memory Report at c_bands before calling an iterative solver
            93 MiB given to the printing process from OS
             0 MiB allocation reported by mallinfo(arena+hblkhd)
          1919 MiB available memory on the node where the printing process lives
------------------
     ethr =  1.07E-11,  avg # of iterations =  1.0

     total cpu time spent up to now is        9.6 secs

     total energy              =     -22.83785874 Ry
     estimated scf accuracy    <          6.0E-09 Ry

     iteration # 20     ecut=    30.00 Ry     beta= 0.40
     Davidson diagonalization with overlap

---- Real-time Memory Report at c_bands before calling an iterative solver
            93 MiB given to the printing process from OS
             0 MiB allocation reported by mallinfo(arena+hblkhd)
          1919 MiB available memory on the node where the printing process lives
------------------
     ethr =  1.07E-11,  avg # of iterations =  2.0

     total cpu time spent up to now is       10.0 secs

     total energy              =     -22.83785874 Ry
     estimated scf accuracy    <          2.0E-09 Ry

     iteration # 21     ecut=    30.00 Ry     beta= 0.40
     Davidson diagonalization with overlap

---- Real-time Memory Report at c_bands before calling an iterative solver
            93 MiB given to the printing process from OS
             0 MiB allocation reported by mallinfo(arena+hblkhd)
          1919 MiB available memory on the node where the printing process lives
------------------
     ethr =  1.07E-11,  avg # of iterations =  1.0

     total cpu time spent up to now is       10.4 secs

     total energy              =     -22.83785874 Ry
     estimated scf accuracy    <          4.0E-09 Ry

     iteration # 22     ecut=    30.00 Ry     beta= 0.40
     Davidson diagonalization with overlap

---- Real-time Memory Report at c_bands before calling an iterative solver
            93 MiB given to the printing process from OS
             0 MiB allocation reported by mallinfo(arena+hblkhd)
          1919 MiB available memory on the node where the printing process lives
------------------
     ethr =  1.07E-11,  avg # of iterations =  1.0

     total cpu time spent up to now is       10.8 secs

     total energy              =     -22.83785874 Ry
     estimated scf accuracy    <          2.2E-09 Ry

     iteration # 23     ecut=    30.00 Ry     beta= 0.40
     Davidson diagonalization with overlap

---- Real-time Memory Report at c_bands before calling an iterative solver
            93 MiB given to the printing process from OS
             0 MiB allocation reported by mallinfo(arena+hblkhd)
          1919 MiB available memory on the node where the printing process lives
------------------
     ethr =  1.07E-11,  avg # of iterations =  2.0

     total cpu time spent up to now is       11.3 secs

     End of self-consistent calculation

          k = 0.0000 0.0000 0.0000 (   725 PWs)   bands (ev):

    -5.6595   6.4950   6.4950   6.4950

     occupation numbers 
     1.0000   1.0000   1.0000   1.0000

          k =-0.0707 0.0707 0.0707 (   728 PWs)   bands (ev):

    -5.5255   5.3440   6.2905   6.2905

     occupation numbers 
     1.0000   1.0000   1.0000   1.0000

          k =-0.1414 0.1414 0.1414 (   730 PWs)   bands (ev):

    -5.1296   3.4502   5.9004   5.9004

     occupation numbers 
     1.0000   1.0000   1.0000   1.0000

          k =-0.2121 0.2121 0.2121 (   745 PWs)   bands (ev):

    -4.4982   1.6263   5.5589   5.5589

     occupation numbers 
     1.0000   1.0000   1.0000   1.0000

          k =-0.2828 0.2828 0.2828 (   739 PWs)   bands (ev):

    -3.7282   0.1128   5.3433   5.3433

     occupation numbers 
     1.0000   1.0000   1.0000   1.0000

          k = 0.3536-0.3536-0.3536 (   718 PWs)   bands (ev):

    -3.2580  -0.6089   5.2707   5.2707

     occupation numbers 
     1.0000   1.0000   1.0000   1.0000

          k = 0.0000 0.0000 0.1414 (   733 PWs)   bands (ev):

    -5.4805   5.5786   5.8986   5.8986

     occupation numbers 
     1.0000   1.0000   1.0000   1.0000

          k =-0.0707 0.0707 0.2121 (   729 PWs)   bands (ev):

    -5.1708   4.0296   5.4522   5.6423

     occupation numbers 
     1.0000   1.0000   1.0000   1.0000

          k =-0.1414 0.1414 0.2828 (   729 PWs)   bands (ev):

    -4.6135   2.2290   5.1270   5.2015

     occupation numbers 
     1.0000   1.0000   1.0000   1.0000

          k =-0.2121 0.2121 0.3536 (   736 PWs)   bands (ev):

    -3.8689   0.6165   4.7808   4.9784

     occupation numbers 
     1.0000   1.0000   1.0000   1.0000

          k = 0.4243-0.4243-0.2828 (   734 PWs)   bands (ev):

    -3.2040  -0.4535   4.4822   5.0146

     occupation numbers 
     1.0000   1.0000   1.0000   1.0000

          k = 0.3536-0.3536-0.2121 (   732 PWs)   bands (ev):

    -3.3785  -0.1958   4.3476   5.2212

     occupation numbers 
     1.0000   1.0000   1.0000   1.0000

          k = 0.2828-0.2828-0.1414 (   739 PWs)   bands (ev):

    -4.1320   1.1233   4.4041   5.5653

     occupation numbers 
     1.0000   1.0000   1.0000   1.0000

          k = 0.2121-0.2121-0.0707 (   730 PWs)   bands (ev):

    -4.8262   2.8131   4.6791   5.9821

     occupation numbers 
     1.0000   1.0000   1.0000   1.0000

          k = 0.1414-0.1414 0.0000 (   729 PWs)   bands (ev):

    -5.3037   4.4588   5.2962   6.3170

     occupation numbers 
     1.0000   1.0000   1.0000   1.0000

          k = 0.0000 0.0000 0.2828 (   725 PWs)   bands (ev):

    -4.9475   3.8868   4.9628   4.9628

     occupation numbers 
     1.0000   1.0000   1.0000   1.0000

          k =-0.0707 0.0707 0.3536 (   727 PWs)   bands (ev):

    -4.4704   2.6063   4.4501   4.6067

     occupation numbers 
     1.0000   1.0000   1.0000   1.0000

          k =-0.1414 0.1414 0.4243 (   725 PWs)   bands (ev):

    -3.7769   1.1270   3.8110   4.4446

     occupation numbers 
     1.0000   1.0000   1.0000   1.0000

          k = 0.4950-0.4950-0.2121 (   726 PWs)   bands (ev):

    -3.0216  -0.0957   3.2897   4.4914

     occupation numbers 
     1.0000   1.0000   1.0000   1.0000

          k = 0.4243-0.4243-0.1414 (   729 PWs)   bands (ev):

    -2.8615  -0.3130   2.9809   4.7373

     occupation numbers 
     1.0000   1.0000   1.0000   1.0000

          k = 0.3536-0.3536-0.0707 (   734 PWs)   bands (ev):

    -3.5389   0.7085   2.9517   5.1466

     occupation numbers 
     1.0000   1.0000   1.0000   1.0000

          k = 0.2828-0.2828 0.0000 (   732 PWs)   bands (ev):

    -4.2772   1.9812   3.4069   5.6312

     occupation numbers 
     1.0000   1.0000   1.0000   1.0000

          k = 0.0000 0.0000 0.4243 (   721 PWs)   bands (ev):

    -4.0733   2.0652   4.2040   4.2040

     occupation numbers 
     1.0000   1.0000   1.0000   1.0000

          k =-0.0707 0.0707 0.4950 (   730 PWs)   bands (ev):

    -3.4449   1.0363   3.5576   3.9949

     occupation numbers 
     1.0000   1.0000   1.0000   1.0000

          k = 0.5657-0.5657-0.1414 (   729 PWs)   bands (ev):

    -2.6725   0.0025   2.7030   4.0026

     occupation numbers 
     1.0000   1.0000   1.0000   1.0000

          k = 0.4950-0.4950-0.0707 (   721 PWs)   bands (ev):

    -2.2351  -0.4927   2.1321   4.2246

     occupation numbers 
     1.0000   1.0000   1.0000   1.0000

          k = 0.4243-0.4243-0.0000 (   728 PWs)   bands (ev):

    -2.7911   0.1135   2.1037   4.6323

     occupation numbers 
     1.0000   1.0000   1.0000   1.0000

          k = 0.0000 0.0000 0.5657 (   729 PWs)   bands (ev):

    -2.8820   0.2639   3.7286   3.7286

     occupation numbers 
     1.0000   1.0000   1.0000   1.0000

          k = 0.6364-0.6364-0.0707 (   732 PWs)   bands (ev):

    -2.1338  -0.5957   3.1195   3.6792

     occupation numbers 
     1.0000   1.0000   1.0000   1.0000

          k = 0.5657-0.5657 0.0000 (   728 PWs)   bands (ev):

    -1.6373  -1.0303   2.3061   3.8511

     occupation numbers 
     1.0000   1.0000   1.0000   1.0000

          k = 0.0000 0.0000-0.7071 (   740 PWs)   bands (ev):

    -1.4148  -1.4148   3.5676   3.5676

     occupation numbers 
     1.0000   1.0000   1.0000   1.0000

          k = 0.0000 0.1414 0.2828 (   723 PWs)   bands (ev):

    -4.7780   3.1048   4.3516   5.5040

     occupation numbers 
     1.0000   1.0000   1.0000   1.0000

          k =-0.0707 0.2121 0.3536 (   729 PWs)   bands (ev):

    -4.1506   1.6599   3.7575   5.1158

     occupation numbers 
     1.0000   1.0000   1.0000   1.0000

          k = 0.5657-0.4243-0.2828 (   729 PWs)   bands (ev):

    -3.3811   0.2566   3.5302   4.7527

     occupation numbers 
     1.0000   1.0000   1.0000   1.0000

          k = 0.4950-0.3536-0.2121 (   730 PWs)   bands (ev):

    -2.9035  -0.4457   3.4726   4.6092

     occupation numbers 
     1.0000   1.0000   1.0000   1.0000

          k =-0.0000 0.1414 0.4243 (   722 PWs)   bands (ev):

    -3.9191   1.6951   3.6067   4.3519

     occupation numbers 
     1.0000   1.0000   1.0000   1.0000

          k = 0.6364-0.4950-0.2121 (   725 PWs)   bands (ev):

    -3.1788   0.5643   2.9756   4.0099

     occupation numbers 
     1.0000   1.0000   1.0000   1.0000

          k = 0.5657-0.4243-0.1414 (   728 PWs)   bands (ev):

    -2.5053  -0.3299   2.5593   3.9525

     occupation numbers 
     1.0000   1.0000   1.0000   1.0000

          k = 0.4950-0.3536-0.0707 (   726 PWs)   bands (ev):

    -2.7138  -0.0611   2.4003   4.2011

     occupation numbers 
     1.0000   1.0000   1.0000   1.0000

          k = 0.4243-0.2828 0.0000 (   732 PWs)   bands (ev):

    -3.4726   0.9163   2.7032   4.6563

     occupation numbers 
     1.0000   1.0000   1.0000   1.0000

          k = 0.7071-0.5657-0.1414 (   735 PWs)   bands (ev):

    -2.7591   0.1780   3.1848   3.5177

     occupation numbers 
     1.0000   1.0000   1.0000   1.0000

          k = 0.6364-0.4950-0.0707 (   731 PWs)   bands (ev):

    -1.9979  -0.6152   2.4556   3.4250

     occupation numbers 
     1.0000   1.0000   1.0000   1.0000

          k = 0.5657-0.4243-0.0000 (   719 PWs)   bands (ev):

    -1.9984  -0.5925   2.0252   3.7031

     occupation numbers 
     1.0000   1.0000   1.0000   1.0000

          k = 0.0000 0.1414-0.7071 (   726 PWs)   bands (ev):

    -1.3578  -1.3578   3.1393   3.1393

     occupation numbers 
     1.0000   1.0000   1.0000   1.0000

          k = 0.7071-0.4243-0.1414 (   737 PWs)   bands (ev):

    -2.4257  -0.1278   2.3974   3.4107

     occupation numbers 
     1.0000   1.0000   1.0000   1.0000

          k = 0.6364-0.3536-0.0707 (   728 PWs)   bands (ev):

    -1.8973  -0.6505   2.2336   3.1510

     occupation numbers 
     1.0000   1.0000   1.0000   1.0000

          k = 0.0000 0.2828-0.7071 (   726 PWs)   bands (ev):

    -1.2567  -1.2567   2.6034   2.6034

     occupation numbers 
     1.0000   1.0000   1.0000   1.0000

     highest occupied level (ev):     6.4950

!    total energy              =     -22.83785874 Ry
     estimated scf accuracy    <          4.1E-11 Ry

     The total energy is the sum of the following terms:
     one-electron contribution =       5.38051675 Ry
     hartree contribution      =       1.07638383 Ry
     xc contribution           =     -12.34284249 Ry
     ewald contribution        =     -16.95191684 Ry

     convergence has been achieved in  23 iterations

     Writing output data file ./si.save/

     init_run     :      0.69s CPU      0.70s WALL (       1 calls)
     electrons    :      9.68s CPU     10.47s WALL (       1 calls)

     Called by init_run:
     wfcinit      :      0.22s CPU      0.22s WALL (       1 calls)
     wfcinit:atom :      0.01s CPU      0.01s WALL (      47 calls)
     wfcinit:wfcr :      0.19s CPU      0.19s WALL (      47 calls)
     potinit      :      0.03s CPU      0.04s WALL (       1 calls)
     hinit0       :      0.36s CPU      0.36s WALL (       1 calls)

     Called by electrons:
     c_bands      :      6.53s CPU      6.62s WALL (      24 calls)
     sum_band     :      1.78s CPU      2.20s WALL (      24 calls)
     v_of_rho     :      0.47s CPU      0.47s WALL (      24 calls)
     v_h          :      0.02s CPU      0.02s WALL (      24 calls)
     v_xc         :      0.45s CPU      0.45s WALL (      24 calls)
     newd         :      0.89s CPU      1.17s WALL (      24 calls)
     mix_rho      :      0.06s CPU      0.06s WALL (      24 calls)

     Called by c_bands:
     init_us_2    :      0.42s CPU      0.43s WALL (    2303 calls)
     cegterg      :      5.53s CPU      5.61s WALL (    1128 calls)

     Called by sum_band:
     sum_band:wei :      0.00s CPU      0.00s WALL (      24 calls)
     sum_band:loo :      1.02s CPU      1.02s WALL (      24 calls)
     sum_band:buf :      0.01s CPU      0.01s WALL (    1128 calls)
     sum_band:ini :      0.21s CPU      0.21s WALL (    1128 calls)
     sum_band:cal :      0.21s CPU      0.21s WALL (    1128 calls)
     sum_band:bec :      0.01s CPU      0.01s WALL (    1128 calls)
     addusdens    :      0.71s CPU      1.10s WALL (      24 calls)
     addusd:skk   :      0.00s CPU      0.00s WALL (      24 calls)
     addusd:dgemm :      0.21s CPU      0.58s WALL (      24 calls)
     addusd:qvan2 :      0.35s CPU      0.35s WALL (      24 calls)

     Called by *egterg:
     cdiaghg      :      0.08s CPU      0.09s WALL (    3371 calls)
     cegterg:over :      0.16s CPU      0.16s WALL (    2290 calls)
     cegterg:upda :      0.10s CPU      0.10s WALL (    2290 calls)
     cegterg:last :      0.18s CPU      0.19s WALL (    2103 calls)
     h_psi        :      4.42s CPU      4.48s WALL (    3465 calls)
     s_psi        :      0.64s CPU      0.65s WALL (    3465 calls)
     g_psi        :      0.02s CPU      0.02s WALL (    2290 calls)

     Called by h_psi:
     h_psi:calbec :      0.58s CPU      0.58s WALL (    3465 calls)
     vloc_psi     :      3.18s CPU      3.22s WALL (    3465 calls)
     add_vuspsi   :      0.64s CPU      0.65s WALL (    3465 calls)

     General routines
     calbec       :      0.78s CPU      0.79s WALL (    4593 calls)
     fft          :      0.24s CPU      0.25s WALL (     311 calls)
     ffts         :      0.01s CPU      0.01s WALL (      48 calls)
     fftw         :      3.01s CPU      3.04s WALL (   29282 calls)
     interpolate  :      0.03s CPU      0.03s WALL (      24 calls)

     Parallel routines

     PWSCF        :     10.47s CPU     11.28s WALL


   This run was terminated on:  10:47:54  12May2023            

=------------------------------------------------------------------------------=
   JOB DONE.
=------------------------------------------------------------------------------=
