
     Program Q2R v.6.8 starts on 13May2023 at 18:43:50 

     This program is part of the open-source Quantum ESPRESSO suite
     for quantum simulation of materials; please cite
         "P. Giannozzi et al., J. Phys.:Condens. Matter 21 395502 (2009);
         "P. Giannozzi et al., J. Phys.:Condens. Matter 29 465901 (2017);
         "P. Giannozzi et al., J. Chem. Phys. 152 154105 (2020);
          URL http://www.quantum-espresso.org", 
     in publications or presentations arising from this work. More details at
     http://www.quantum-espresso.org/quote

     Parallel version (MPI), running on     1 processors

     MPI processes distributed on     1 nodes
     1034 MiB available memory on the printing compute node when the environment starts


     reading grid info from file aln.dyn0    
  reading force constants from file aln.dyn1
 macroscopic fields = T
   4.47756   0.00000   0.00000
   0.00000   4.47756   0.00000
   0.00000   0.00000   4.69387
  na=            1
   2.52698   0.00000   0.00000
   0.00000   2.52698   0.00000
   0.00000  -0.00000   2.68559
  na=            2
   2.52698   0.00000   0.00000
   0.00000   2.52698   0.00000
   0.00000   0.00000   2.68559
  na=            3
  -2.51065   0.00000  -0.00000
  -0.00000  -2.51065  -0.00000
  -0.00000  -0.00000  -2.66725
  na=            4
  -2.51065  -0.00000   0.00000
   0.00000  -2.51065   0.00000
  -0.00000   0.00000  -2.66725
  nqs=            1
 q=   0.00000000  0.00000000  0.00000000
  reading force constants from file aln.dyn2
  nqs=            1
 q=   0.00000000  0.00000000 -0.31186166
  reading force constants from file aln.dyn3
  nqs=            6
 q=   0.14433757  0.25000000  0.00000000
 q=  -0.14433757 -0.25000000  0.00000000
 q=  -0.28867513  0.00000000  0.00000000
 q=   0.14433757 -0.25000000  0.00000000
 q=  -0.14433757  0.25000000  0.00000000
 q=   0.28867513  0.00000000  0.00000000
  reading force constants from file aln.dyn4
  nqs=            6
 q=   0.14433757  0.25000000 -0.31186166
 q=  -0.14433757 -0.25000000 -0.31186166
 q=  -0.28867513  0.00000000 -0.31186166
 q=   0.14433757 -0.25000000 -0.31186166
 q=  -0.14433757  0.25000000 -0.31186166
 q=   0.28867513  0.00000000 -0.31186166
  reading force constants from file aln.dyn5
  nqs=            3
 q=  -0.28867513 -0.50000000  0.00000000
 q=   0.57735027 -0.00000000  0.00000000
 q=  -0.28867513  0.50000000  0.00000000
  reading force constants from file aln.dyn6
  nqs=            3
 q=  -0.28867513 -0.50000000 -0.31186166
 q=   0.57735027 -0.00000000 -0.31186166
 q=  -0.28867513  0.50000000 -0.31186166
  reading force constants from file aln.dyn7
  nqs=            6
 q=   0.43301270  0.25000000  0.00000000
 q=  -0.43301270 -0.25000000  0.00000000
 q=   0.00000000 -0.50000000  0.00000000
 q=  -0.43301270  0.25000000  0.00000000
 q=   0.43301270 -0.25000000  0.00000000
 q=   0.00000000  0.50000000  0.00000000
  reading force constants from file aln.dyn8
  nqs=            6
 q=   0.43301270  0.25000000 -0.31186166
 q=  -0.43301270 -0.25000000 -0.31186166
 q=   0.00000000 -0.50000000 -0.31186166
 q=  -0.43301270  0.25000000 -0.31186166
 q=   0.43301270 -0.25000000 -0.31186166
 q=   0.00000000  0.50000000 -0.31186166

      q-space grid ok, #points =   32

      fft-check warning: sum of imaginary terms = 2.988401E-08

     Q2R          :      0.02s CPU      0.02s WALL


   This run was terminated on:  18:43:50  13May2023            

=------------------------------------------------------------------------------=
   JOB DONE.
=------------------------------------------------------------------------------=
